V -t * -v 1.0a5 -a 0
A -t * -n 1 -p 0 -o 0x7fffffff -c 30 -a 1
A -t * -h 1 -m 1073741823 -s 0
c -t * -i 1 -n Blue
c -t * -i 2 -n Red
n -t * -a 0 -s 0 -S UP -v circle -c black -i black
n -t * -a 1 -s 1 -S UP -v circle -c black -i black
n -t * -a 2 -s 2 -S UP -v circle -c black -i black
n -t * -a 3 -s 3 -S UP -v circle -c black -i black
l -t * -s 0 -d 1 -S UP -r 1000000 -D 0.01 -c black -o right-down
l -t * -s 2 -d 1 -S UP -r 5000000 -D 0.0050000000000000001 -c black -o right-up
l -t * -s 1 -d 3 -S UP -r 3000000 -D 0.0080000000000000002 -c black -o right
+ -t 0.504091586621143 -s 2 -d 1 -p tcp -e 40 -c 2 -i 0 -a 2 -x {2.0 3.1 0 ------- null}
- -t 0.504091586621143 -s 2 -d 1 -p tcp -e 40 -c 2 -i 0 -a 2 -x {2.0 3.1 0 ------- null}
h -t 0.504091586621143 -s 2 -d 1 -p tcp -e 40 -c 2 -i 0 -a 2 -x {2.0 3.1 -1 ------- null}
r -t 0.509155586621142 -s 2 -d 1 -p tcp -e 40 -c 2 -i 0 -a 2 -x {2.0 3.1 0 ------- null}
+ -t 0.509155586621142 -s 1 -d 3 -p tcp -e 40 -c 2 -i 0 -a 2 -x {2.0 3.1 0 ------- null}
- -t 0.509155586621142 -s 1 -d 3 -p tcp -e 40 -c 2 -i 0 -a 2 -x {2.0 3.1 0 ------- null}
h -t 0.509155586621142 -s 1 -d 3 -p tcp -e 40 -c 2 -i 0 -a 2 -x {2.0 3.1 -1 ------- null}
r -t 0.517262253287809 -s 1 -d 3 -p tcp -e 40 -c 2 -i 0 -a 2 -x {2.0 3.1 0 ------- null}
+ -t 0.517262253287809 -s 3 -d 1 -p ack -e 40 -c 2 -i 1 -a 2 -x {3.1 2.0 0 ------- null}
- -t 0.517262253287809 -s 3 -d 1 -p ack -e 40 -c 2 -i 1 -a 2 -x {3.1 2.0 0 ------- null}
h -t 0.517262253287809 -s 3 -d 1 -p ack -e 40 -c 2 -i 1 -a 2 -x {3.1 2.0 -1 ------- null}
r -t 0.525368919954476 -s 3 -d 1 -p ack -e 40 -c 2 -i 1 -a 2 -x {3.1 2.0 0 ------- null}
+ -t 0.525368919954476 -s 1 -d 2 -p ack -e 40 -c 2 -i 1 -a 2 -x {3.1 2.0 0 ------- null}
- -t 0.525368919954476 -s 1 -d 2 -p ack -e 40 -c 2 -i 1 -a 2 -x {3.1 2.0 0 ------- null}
h -t 0.525368919954476 -s 1 -d 2 -p ack -e 40 -c 2 -i 1 -a 2 -x {3.1 2.0 -1 ------- null}
r -t 0.530432919954476 -s 1 -d 2 -p ack -e 40 -c 2 -i 1 -a 2 -x {3.1 2.0 0 ------- null}
+ -t 0.530432919954476 -s 2 -d 1 -p tcp -e 1040 -c 2 -i 2 -a 2 -x {2.0 3.1 1 ------- null}
- -t 0.530432919954476 -s 2 -d 1 -p tcp -e 1040 -c 2 -i 2 -a 2 -x {2.0 3.1 1 ------- null}
h -t 0.530432919954476 -s 2 -d 1 -p tcp -e 1040 -c 2 -i 2 -a 2 -x {2.0 3.1 -1 ------- null}
+ -t 0.530432919954476 -s 2 -d 1 -p tcp -e 1040 -c 2 -i 3 -a 2 -x {2.0 3.1 2 ------- null}
- -t 0.532096919954476 -s 2 -d 1 -p tcp -e 1040 -c 2 -i 3 -a 2 -x {2.0 3.1 2 ------- null}
h -t 0.532096919954476 -s 2 -d 1 -p tcp -e 1040 -c 2 -i 3 -a 2 -x {2.0 3.1 -1 ------- null}
r -t 0.537096919954476 -s 2 -d 1 -p tcp -e 1040 -c 2 -i 2 -a 2 -x {2.0 3.1 1 ------- null}
+ -t 0.537096919954476 -s 1 -d 3 -p tcp -e 1040 -c 2 -i 2 -a 2 -x {2.0 3.1 1 ------- null}
- -t 0.537096919954476 -s 1 -d 3 -p tcp -e 1040 -c 2 -i 2 -a 2 -x {2.0 3.1 1 ------- null}
h -t 0.537096919954476 -s 1 -d 3 -p tcp -e 1040 -c 2 -i 2 -a 2 -x {2.0 3.1 -1 ------- null}
r -t 0.538760919954476 -s 2 -d 1 -p tcp -e 1040 -c 2 -i 3 -a 2 -x {2.0 3.1 2 ------- null}
+ -t 0.538760919954476 -s 1 -d 3 -p tcp -e 1040 -c 2 -i 3 -a 2 -x {2.0 3.1 2 ------- null}
- -t 0.539870253287809 -s 1 -d 3 -p tcp -e 1040 -c 2 -i 3 -a 2 -x {2.0 3.1 2 ------- null}
h -t 0.539870253287809 -s 1 -d 3 -p tcp -e 1040 -c 2 -i 3 -a 2 -x {2.0 3.1 -1 ------- null}
r -t 0.547870253287809 -s 1 -d 3 -p tcp -e 1040 -c 2 -i 2 -a 2 -x {2.0 3.1 1 ------- null}
+ -t 0.547870253287809 -s 3 -d 1 -p ack -e 40 -c 2 -i 4 -a 2 -x {3.1 2.0 1 ------- null}
- -t 0.547870253287809 -s 3 -d 1 -p ack -e 40 -c 2 -i 4 -a 2 -x {3.1 2.0 1 ------- null}
h -t 0.547870253287809 -s 3 -d 1 -p ack -e 40 -c 2 -i 4 -a 2 -x {3.1 2.0 -1 ------- null}
r -t 0.550643586621142 -s 1 -d 3 -p tcp -e 1040 -c 2 -i 3 -a 2 -x {2.0 3.1 2 ------- null}
+ -t 0.550643586621142 -s 3 -d 1 -p ack -e 40 -c 2 -i 5 -a 2 -x {3.1 2.0 2 ------- null}
- -t 0.550643586621142 -s 3 -d 1 -p ack -e 40 -c 2 -i 5 -a 2 -x {3.1 2.0 2 ------- null}
h -t 0.550643586621142 -s 3 -d 1 -p ack -e 40 -c 2 -i 5 -a 2 -x {3.1 2.0 -1 ------- null}
r -t 0.555976919954476 -s 3 -d 1 -p ack -e 40 -c 2 -i 4 -a 2 -x {3.1 2.0 1 ------- null}
+ -t 0.555976919954476 -s 1 -d 2 -p ack -e 40 -c 2 -i 4 -a 2 -x {3.1 2.0 1 ------- null}
- -t 0.555976919954476 -s 1 -d 2 -p ack -e 40 -c 2 -i 4 -a 2 -x {3.1 2.0 1 ------- null}
h -t 0.555976919954476 -s 1 -d 2 -p ack -e 40 -c 2 -i 4 -a 2 -x {3.1 2.0 -1 ------- null}
r -t 0.558750253287809 -s 3 -d 1 -p ack -e 40 -c 2 -i 5 -a 2 -x {3.1 2.0 2 ------- null}
+ -t 0.558750253287809 -s 1 -d 2 -p ack -e 40 -c 2 -i 5 -a 2 -x {3.1 2.0 2 ------- null}
- -t 0.558750253287809 -s 1 -d 2 -p ack -e 40 -c 2 -i 5 -a 2 -x {3.1 2.0 2 ------- null}
h -t 0.558750253287809 -s 1 -d 2 -p ack -e 40 -c 2 -i 5 -a 2 -x {3.1 2.0 -1 ------- null}
r -t 0.561040919954476 -s 1 -d 2 -p ack -e 40 -c 2 -i 4 -a 2 -x {3.1 2.0 1 ------- null}
+ -t 0.561040919954476 -s 2 -d 1 -p tcp -e 1040 -c 2 -i 6 -a 2 -x {2.0 3.1 3 ------- null}
- -t 0.561040919954476 -s 2 -d 1 -p tcp -e 1040 -c 2 -i 6 -a 2 -x {2.0 3.1 3 ------- null}
h -t 0.561040919954476 -s 2 -d 1 -p tcp -e 1040 -c 2 -i 6 -a 2 -x {2.0 3.1 -1 ------- null}
+ -t 0.561040919954476 -s 2 -d 1 -p tcp -e 1040 -c 2 -i 7 -a 2 -x {2.0 3.1 4 ------- null}
- -t 0.562704919954476 -s 2 -d 1 -p tcp -e 1040 -c 2 -i 7 -a 2 -x {2.0 3.1 4 ------- null}
h -t 0.562704919954476 -s 2 -d 1 -p tcp -e 1040 -c 2 -i 7 -a 2 -x {2.0 3.1 -1 ------- null}
r -t 0.563814253287809 -s 1 -d 2 -p ack -e 40 -c 2 -i 5 -a 2 -x {3.1 2.0 2 ------- null}
+ -t 0.563814253287809 -s 2 -d 1 -p tcp -e 1040 -c 2 -i 8 -a 2 -x {2.0 3.1 5 ------- null}
+ -t 0.563814253287809 -s 2 -d 1 -p tcp -e 1040 -c 2 -i 9 -a 2 -x {2.0 3.1 6 ------- null}
- -t 0.564368919954476 -s 2 -d 1 -p tcp -e 1040 -c 2 -i 8 -a 2 -x {2.0 3.1 5 ------- null}
h -t 0.564368919954476 -s 2 -d 1 -p tcp -e 1040 -c 2 -i 8 -a 2 -x {2.0 3.1 -1 ------- null}
- -t 0.566032919954476 -s 2 -d 1 -p tcp -e 1040 -c 2 -i 9 -a 2 -x {2.0 3.1 6 ------- null}
h -t 0.566032919954476 -s 2 -d 1 -p tcp -e 1040 -c 2 -i 9 -a 2 -x {2.0 3.1 -1 ------- null}
r -t 0.567704919954476 -s 2 -d 1 -p tcp -e 1040 -c 2 -i 6 -a 2 -x {2.0 3.1 3 ------- null}
+ -t 0.567704919954476 -s 1 -d 3 -p tcp -e 1040 -c 2 -i 6 -a 2 -x {2.0 3.1 3 ------- null}
- -t 0.567704919954476 -s 1 -d 3 -p tcp -e 1040 -c 2 -i 6 -a 2 -x {2.0 3.1 3 ------- null}
h -t 0.567704919954476 -s 1 -d 3 -p tcp -e 1040 -c 2 -i 6 -a 2 -x {2.0 3.1 -1 ------- null}
r -t 0.569368919954476 -s 2 -d 1 -p tcp -e 1040 -c 2 -i 7 -a 2 -x {2.0 3.1 4 ------- null}
+ -t 0.569368919954476 -s 1 -d 3 -p tcp -e 1040 -c 2 -i 7 -a 2 -x {2.0 3.1 4 ------- null}
- -t 0.570478253287809 -s 1 -d 3 -p tcp -e 1040 -c 2 -i 7 -a 2 -x {2.0 3.1 4 ------- null}
h -t 0.570478253287809 -s 1 -d 3 -p tcp -e 1040 -c 2 -i 7 -a 2 -x {2.0 3.1 -1 ------- null}
r -t 0.571032919954476 -s 2 -d 1 -p tcp -e 1040 -c 2 -i 8 -a 2 -x {2.0 3.1 5 ------- null}
+ -t 0.571032919954476 -s 1 -d 3 -p tcp -e 1040 -c 2 -i 8 -a 2 -x {2.0 3.1 5 ------- null}
r -t 0.572696919954476 -s 2 -d 1 -p tcp -e 1040 -c 2 -i 9 -a 2 -x {2.0 3.1 6 ------- null}
+ -t 0.572696919954476 -s 1 -d 3 -p tcp -e 1040 -c 2 -i 9 -a 2 -x {2.0 3.1 6 ------- null}
- -t 0.573251586621142 -s 1 -d 3 -p tcp -e 1040 -c 2 -i 8 -a 2 -x {2.0 3.1 5 ------- null}
h -t 0.573251586621142 -s 1 -d 3 -p tcp -e 1040 -c 2 -i 8 -a 2 -x {2.0 3.1 -1 ------- null}
- -t 0.576024919954476 -s 1 -d 3 -p tcp -e 1040 -c 2 -i 9 -a 2 -x {2.0 3.1 6 ------- null}
h -t 0.576024919954476 -s 1 -d 3 -p tcp -e 1040 -c 2 -i 9 -a 2 -x {2.0 3.1 -1 ------- null}
r -t 0.578478253287809 -s 1 -d 3 -p tcp -e 1040 -c 2 -i 6 -a 2 -x {2.0 3.1 3 ------- null}
+ -t 0.578478253287809 -s 3 -d 1 -p ack -e 40 -c 2 -i 10 -a 2 -x {3.1 2.0 3 ------- null}
- -t 0.578478253287809 -s 3 -d 1 -p ack -e 40 -c 2 -i 10 -a 2 -x {3.1 2.0 3 ------- null}
h -t 0.578478253287809 -s 3 -d 1 -p ack -e 40 -c 2 -i 10 -a 2 -x {3.1 2.0 -1 ------- null}
r -t 0.581251586621142 -s 1 -d 3 -p tcp -e 1040 -c 2 -i 7 -a 2 -x {2.0 3.1 4 ------- null}
+ -t 0.581251586621142 -s 3 -d 1 -p ack -e 40 -c 2 -i 11 -a 2 -x {3.1 2.0 4 ------- null}
- -t 0.581251586621142 -s 3 -d 1 -p ack -e 40 -c 2 -i 11 -a 2 -x {3.1 2.0 4 ------- null}
h -t 0.581251586621142 -s 3 -d 1 -p ack -e 40 -c 2 -i 11 -a 2 -x {3.1 2.0 -1 ------- null}
r -t 0.584024919954476 -s 1 -d 3 -p tcp -e 1040 -c 2 -i 8 -a 2 -x {2.0 3.1 5 ------- null}
+ -t 0.584024919954476 -s 3 -d 1 -p ack -e 40 -c 2 -i 12 -a 2 -x {3.1 2.0 5 ------- null}
- -t 0.584024919954476 -s 3 -d 1 -p ack -e 40 -c 2 -i 12 -a 2 -x {3.1 2.0 5 ------- null}
h -t 0.584024919954476 -s 3 -d 1 -p ack -e 40 -c 2 -i 12 -a 2 -x {3.1 2.0 -1 ------- null}
r -t 0.586584919954476 -s 3 -d 1 -p ack -e 40 -c 2 -i 10 -a 2 -x {3.1 2.0 3 ------- null}
+ -t 0.586584919954476 -s 1 -d 2 -p ack -e 40 -c 2 -i 10 -a 2 -x {3.1 2.0 3 ------- null}
- -t 0.586584919954476 -s 1 -d 2 -p ack -e 40 -c 2 -i 10 -a 2 -x {3.1 2.0 3 ------- null}
h -t 0.586584919954476 -s 1 -d 2 -p ack -e 40 -c 2 -i 10 -a 2 -x {3.1 2.0 -1 ------- null}
r -t 0.586798253287809 -s 1 -d 3 -p tcp -e 1040 -c 2 -i 9 -a 2 -x {2.0 3.1 6 ------- null}
+ -t 0.586798253287809 -s 3 -d 1 -p ack -e 40 -c 2 -i 13 -a 2 -x {3.1 2.0 6 ------- null}
- -t 0.586798253287809 -s 3 -d 1 -p ack -e 40 -c 2 -i 13 -a 2 -x {3.1 2.0 6 ------- null}
h -t 0.586798253287809 -s 3 -d 1 -p ack -e 40 -c 2 -i 13 -a 2 -x {3.1 2.0 -1 ------- null}
r -t 0.589358253287809 -s 3 -d 1 -p ack -e 40 -c 2 -i 11 -a 2 -x {3.1 2.0 4 ------- null}
+ -t 0.589358253287809 -s 1 -d 2 -p ack -e 40 -c 2 -i 11 -a 2 -x {3.1 2.0 4 ------- null}
- -t 0.589358253287809 -s 1 -d 2 -p ack -e 40 -c 2 -i 11 -a 2 -x {3.1 2.0 4 ------- null}
h -t 0.589358253287809 -s 1 -d 2 -p ack -e 40 -c 2 -i 11 -a 2 -x {3.1 2.0 -1 ------- null}
r -t 0.591648919954476 -s 1 -d 2 -p ack -e 40 -c 2 -i 10 -a 2 -x {3.1 2.0 3 ------- null}
+ -t 0.591648919954476 -s 2 -d 1 -p tcp -e 1040 -c 2 -i 14 -a 2 -x {2.0 3.1 7 ------- null}
- -t 0.591648919954476 -s 2 -d 1 -p tcp -e 1040 -c 2 -i 14 -a 2 -x {2.0 3.1 7 ------- null}
h -t 0.591648919954476 -s 2 -d 1 -p tcp -e 1040 -c 2 -i 14 -a 2 -x {2.0 3.1 -1 ------- null}
+ -t 0.591648919954476 -s 2 -d 1 -p tcp -e 1040 -c 2 -i 15 -a 2 -x {2.0 3.1 8 ------- null}
r -t 0.592131586621142 -s 3 -d 1 -p ack -e 40 -c 2 -i 12 -a 2 -x {3.1 2.0 5 ------- null}
+ -t 0.592131586621142 -s 1 -d 2 -p ack -e 40 -c 2 -i 12 -a 2 -x {3.1 2.0 5 ------- null}
- -t 0.592131586621142 -s 1 -d 2 -p ack -e 40 -c 2 -i 12 -a 2 -x {3.1 2.0 5 ------- null}
h -t 0.592131586621142 -s 1 -d 2 -p ack -e 40 -c 2 -i 12 -a 2 -x {3.1 2.0 -1 ------- null}
- -t 0.593312919954476 -s 2 -d 1 -p tcp -e 1040 -c 2 -i 15 -a 2 -x {2.0 3.1 8 ------- null}
h -t 0.593312919954476 -s 2 -d 1 -p tcp -e 1040 -c 2 -i 15 -a 2 -x {2.0 3.1 -1 ------- null}
r -t 0.594422253287809 -s 1 -d 2 -p ack -e 40 -c 2 -i 11 -a 2 -x {3.1 2.0 4 ------- null}
+ -t 0.594422253287809 -s 2 -d 1 -p tcp -e 1040 -c 2 -i 16 -a 2 -x {2.0 3.1 9 ------- null}
+ -t 0.594422253287809 -s 2 -d 1 -p tcp -e 1040 -c 2 -i 17 -a 2 -x {2.0 3.1 10 ------- null}
r -t 0.594904919954476 -s 3 -d 1 -p ack -e 40 -c 2 -i 13 -a 2 -x {3.1 2.0 6 ------- null}
+ -t 0.594904919954476 -s 1 -d 2 -p ack -e 40 -c 2 -i 13 -a 2 -x {3.1 2.0 6 ------- null}
- -t 0.594904919954476 -s 1 -d 2 -p ack -e 40 -c 2 -i 13 -a 2 -x {3.1 2.0 6 ------- null}
h -t 0.594904919954476 -s 1 -d 2 -p ack -e 40 -c 2 -i 13 -a 2 -x {3.1 2.0 -1 ------- null}
- -t 0.594976919954476 -s 2 -d 1 -p tcp -e 1040 -c 2 -i 16 -a 2 -x {2.0 3.1 9 ------- null}
h -t 0.594976919954476 -s 2 -d 1 -p tcp -e 1040 -c 2 -i 16 -a 2 -x {2.0 3.1 -1 ------- null}
- -t 0.596640919954476 -s 2 -d 1 -p tcp -e 1040 -c 2 -i 17 -a 2 -x {2.0 3.1 10 ------- null}
h -t 0.596640919954476 -s 2 -d 1 -p tcp -e 1040 -c 2 -i 17 -a 2 -x {2.0 3.1 -1 ------- null}
r -t 0.597195586621142 -s 1 -d 2 -p ack -e 40 -c 2 -i 12 -a 2 -x {3.1 2.0 5 ------- null}
+ -t 0.597195586621142 -s 2 -d 1 -p tcp -e 1040 -c 2 -i 18 -a 2 -x {2.0 3.1 11 ------- null}
+ -t 0.597195586621142 -s 2 -d 1 -p tcp -e 1040 -c 2 -i 19 -a 2 -x {2.0 3.1 12 ------- null}
- -t 0.598304919954476 -s 2 -d 1 -p tcp -e 1040 -c 2 -i 18 -a 2 -x {2.0 3.1 11 ------- null}
h -t 0.598304919954476 -s 2 -d 1 -p tcp -e 1040 -c 2 -i 18 -a 2 -x {2.0 3.1 -1 ------- null}
r -t 0.598312919954476 -s 2 -d 1 -p tcp -e 1040 -c 2 -i 14 -a 2 -x {2.0 3.1 7 ------- null}
+ -t 0.598312919954476 -s 1 -d 3 -p tcp -e 1040 -c 2 -i 14 -a 2 -x {2.0 3.1 7 ------- null}
- -t 0.598312919954476 -s 1 -d 3 -p tcp -e 1040 -c 2 -i 14 -a 2 -x {2.0 3.1 7 ------- null}
h -t 0.598312919954476 -s 1 -d 3 -p tcp -e 1040 -c 2 -i 14 -a 2 -x {2.0 3.1 -1 ------- null}
r -t 0.599968919954476 -s 1 -d 2 -p ack -e 40 -c 2 -i 13 -a 2 -x {3.1 2.0 6 ------- null}
+ -t 0.599968919954476 -s 2 -d 1 -p tcp -e 1040 -c 2 -i 20 -a 2 -x {2.0 3.1 13 ------- null}
+ -t 0.599968919954476 -s 2 -d 1 -p tcp -e 1040 -c 2 -i 21 -a 2 -x {2.0 3.1 14 ------- null}
- -t 0.599968919954476 -s 2 -d 1 -p tcp -e 1040 -c 2 -i 19 -a 2 -x {2.0 3.1 12 ------- null}
h -t 0.599968919954476 -s 2 -d 1 -p tcp -e 1040 -c 2 -i 19 -a 2 -x {2.0 3.1 -1 ------- null}
r -t 0.599976919954476 -s 2 -d 1 -p tcp -e 1040 -c 2 -i 15 -a 2 -x {2.0 3.1 8 ------- null}
+ -t 0.599976919954476 -s 1 -d 3 -p tcp -e 1040 -c 2 -i 15 -a 2 -x {2.0 3.1 8 ------- null}
- -t 0.601086253287809 -s 1 -d 3 -p tcp -e 1040 -c 2 -i 15 -a 2 -x {2.0 3.1 8 ------- null}
h -t 0.601086253287809 -s 1 -d 3 -p tcp -e 1040 -c 2 -i 15 -a 2 -x {2.0 3.1 -1 ------- null}
- -t 0.601632919954476 -s 2 -d 1 -p tcp -e 1040 -c 2 -i 20 -a 2 -x {2.0 3.1 13 ------- null}
h -t 0.601632919954476 -s 2 -d 1 -p tcp -e 1040 -c 2 -i 20 -a 2 -x {2.0 3.1 -1 ------- null}
r -t 0.601640919954476 -s 2 -d 1 -p tcp -e 1040 -c 2 -i 16 -a 2 -x {2.0 3.1 9 ------- null}
+ -t 0.601640919954476 -s 1 -d 3 -p tcp -e 1040 -c 2 -i 16 -a 2 -x {2.0 3.1 9 ------- null}
- -t 0.603296919954476 -s 2 -d 1 -p tcp -e 1040 -c 2 -i 21 -a 2 -x {2.0 3.1 14 ------- null}
h -t 0.603296919954476 -s 2 -d 1 -p tcp -e 1040 -c 2 -i 21 -a 2 -x {2.0 3.1 -1 ------- null}
r -t 0.603304919954476 -s 2 -d 1 -p tcp -e 1040 -c 2 -i 17 -a 2 -x {2.0 3.1 10 ------- null}
+ -t 0.603304919954476 -s 1 -d 3 -p tcp -e 1040 -c 2 -i 17 -a 2 -x {2.0 3.1 10 ------- null}
- -t 0.603859586621142 -s 1 -d 3 -p tcp -e 1040 -c 2 -i 16 -a 2 -x {2.0 3.1 9 ------- null}
h -t 0.603859586621142 -s 1 -d 3 -p tcp -e 1040 -c 2 -i 16 -a 2 -x {2.0 3.1 -1 ------- null}
r -t 0.604968919954476 -s 2 -d 1 -p tcp -e 1040 -c 2 -i 18 -a 2 -x {2.0 3.1 11 ------- null}
+ -t 0.604968919954476 -s 1 -d 3 -p tcp -e 1040 -c 2 -i 18 -a 2 -x {2.0 3.1 11 ------- null}
- -t 0.606632919954476 -s 1 -d 3 -p tcp -e 1040 -c 2 -i 17 -a 2 -x {2.0 3.1 10 ------- null}
h -t 0.606632919954476 -s 1 -d 3 -p tcp -e 1040 -c 2 -i 17 -a 2 -x {2.0 3.1 -1 ------- null}
r -t 0.606632919954476 -s 2 -d 1 -p tcp -e 1040 -c 2 -i 19 -a 2 -x {2.0 3.1 12 ------- null}
+ -t 0.606632919954476 -s 1 -d 3 -p tcp -e 1040 -c 2 -i 19 -a 2 -x {2.0 3.1 12 ------- null}
r -t 0.608296919954476 -s 2 -d 1 -p tcp -e 1040 -c 2 -i 20 -a 2 -x {2.0 3.1 13 ------- null}
+ -t 0.608296919954476 -s 1 -d 3 -p tcp -e 1040 -c 2 -i 20 -a 2 -x {2.0 3.1 13 ------- null}
r -t 0.609086253287809 -s 1 -d 3 -p tcp -e 1040 -c 2 -i 14 -a 2 -x {2.0 3.1 7 ------- null}
+ -t 0.609086253287809 -s 3 -d 1 -p ack -e 40 -c 2 -i 22 -a 2 -x {3.1 2.0 7 ------- null}
- -t 0.609086253287809 -s 3 -d 1 -p ack -e 40 -c 2 -i 22 -a 2 -x {3.1 2.0 7 ------- null}
h -t 0.609086253287809 -s 3 -d 1 -p ack -e 40 -c 2 -i 22 -a 2 -x {3.1 2.0 -1 ------- null}
- -t 0.609406253287809 -s 1 -d 3 -p tcp -e 1040 -c 2 -i 18 -a 2 -x {2.0 3.1 11 ------- null}
h -t 0.609406253287809 -s 1 -d 3 -p tcp -e 1040 -c 2 -i 18 -a 2 -x {2.0 3.1 -1 ------- null}
r -t 0.609960919954476 -s 2 -d 1 -p tcp -e 1040 -c 2 -i 21 -a 2 -x {2.0 3.1 14 ------- null}
+ -t 0.609960919954476 -s 1 -d 3 -p tcp -e 1040 -c 2 -i 21 -a 2 -x {2.0 3.1 14 ------- null}
r -t 0.611859586621142 -s 1 -d 3 -p tcp -e 1040 -c 2 -i 15 -a 2 -x {2.0 3.1 8 ------- null}
+ -t 0.611859586621142 -s 3 -d 1 -p ack -e 40 -c 2 -i 23 -a 2 -x {3.1 2.0 8 ------- null}
- -t 0.611859586621142 -s 3 -d 1 -p ack -e 40 -c 2 -i 23 -a 2 -x {3.1 2.0 8 ------- null}
h -t 0.611859586621142 -s 3 -d 1 -p ack -e 40 -c 2 -i 23 -a 2 -x {3.1 2.0 -1 ------- null}
- -t 0.612179586621142 -s 1 -d 3 -p tcp -e 1040 -c 2 -i 19 -a 2 -x {2.0 3.1 12 ------- null}
h -t 0.612179586621142 -s 1 -d 3 -p tcp -e 1040 -c 2 -i 19 -a 2 -x {2.0 3.1 -1 ------- null}
r -t 0.614632919954476 -s 1 -d 3 -p tcp -e 1040 -c 2 -i 16 -a 2 -x {2.0 3.1 9 ------- null}
+ -t 0.614632919954476 -s 3 -d 1 -p ack -e 40 -c 2 -i 24 -a 2 -x {3.1 2.0 9 ------- null}
- -t 0.614632919954476 -s 3 -d 1 -p ack -e 40 -c 2 -i 24 -a 2 -x {3.1 2.0 9 ------- null}
h -t 0.614632919954476 -s 3 -d 1 -p ack -e 40 -c 2 -i 24 -a 2 -x {3.1 2.0 -1 ------- null}
- -t 0.614952919954476 -s 1 -d 3 -p tcp -e 1040 -c 2 -i 20 -a 2 -x {2.0 3.1 13 ------- null}
h -t 0.614952919954476 -s 1 -d 3 -p tcp -e 1040 -c 2 -i 20 -a 2 -x {2.0 3.1 -1 ------- null}
r -t 0.617192919954476 -s 3 -d 1 -p ack -e 40 -c 2 -i 22 -a 2 -x {3.1 2.0 7 ------- null}
+ -t 0.617192919954476 -s 1 -d 2 -p ack -e 40 -c 2 -i 22 -a 2 -x {3.1 2.0 7 ------- null}
- -t 0.617192919954476 -s 1 -d 2 -p ack -e 40 -c 2 -i 22 -a 2 -x {3.1 2.0 7 ------- null}
h -t 0.617192919954476 -s 1 -d 2 -p ack -e 40 -c 2 -i 22 -a 2 -x {3.1 2.0 -1 ------- null}
r -t 0.617406253287809 -s 1 -d 3 -p tcp -e 1040 -c 2 -i 17 -a 2 -x {2.0 3.1 10 ------- null}
+ -t 0.617406253287809 -s 3 -d 1 -p ack -e 40 -c 2 -i 25 -a 2 -x {3.1 2.0 10 ------- null}
- -t 0.617406253287809 -s 3 -d 1 -p ack -e 40 -c 2 -i 25 -a 2 -x {3.1 2.0 10 ------- null}
h -t 0.617406253287809 -s 3 -d 1 -p ack -e 40 -c 2 -i 25 -a 2 -x {3.1 2.0 -1 ------- null}
- -t 0.617726253287809 -s 1 -d 3 -p tcp -e 1040 -c 2 -i 21 -a 2 -x {2.0 3.1 14 ------- null}
h -t 0.617726253287809 -s 1 -d 3 -p tcp -e 1040 -c 2 -i 21 -a 2 -x {2.0 3.1 -1 ------- null}
r -t 0.619966253287809 -s 3 -d 1 -p ack -e 40 -c 2 -i 23 -a 2 -x {3.1 2.0 8 ------- null}
+ -t 0.619966253287809 -s 1 -d 2 -p ack -e 40 -c 2 -i 23 -a 2 -x {3.1 2.0 8 ------- null}
- -t 0.619966253287809 -s 1 -d 2 -p ack -e 40 -c 2 -i 23 -a 2 -x {3.1 2.0 8 ------- null}
h -t 0.619966253287809 -s 1 -d 2 -p ack -e 40 -c 2 -i 23 -a 2 -x {3.1 2.0 -1 ------- null}
r -t 0.620179586621142 -s 1 -d 3 -p tcp -e 1040 -c 2 -i 18 -a 2 -x {2.0 3.1 11 ------- null}
+ -t 0.620179586621142 -s 3 -d 1 -p ack -e 40 -c 2 -i 26 -a 2 -x {3.1 2.0 11 ------- null}
- -t 0.620179586621142 -s 3 -d 1 -p ack -e 40 -c 2 -i 26 -a 2 -x {3.1 2.0 11 ------- null}
h -t 0.620179586621142 -s 3 -d 1 -p ack -e 40 -c 2 -i 26 -a 2 -x {3.1 2.0 -1 ------- null}
r -t 0.622256919954476 -s 1 -d 2 -p ack -e 40 -c 2 -i 22 -a 2 -x {3.1 2.0 7 ------- null}
+ -t 0.622256919954476 -s 2 -d 1 -p tcp -e 1040 -c 2 -i 27 -a 2 -x {2.0 3.1 15 ------- null}
- -t 0.622256919954476 -s 2 -d 1 -p tcp -e 1040 -c 2 -i 27 -a 2 -x {2.0 3.1 15 ------- null}
h -t 0.622256919954476 -s 2 -d 1 -p tcp -e 1040 -c 2 -i 27 -a 2 -x {2.0 3.1 -1 ------- null}
+ -t 0.622256919954476 -s 2 -d 1 -p tcp -e 1040 -c 2 -i 28 -a 2 -x {2.0 3.1 16 ------- null}
r -t 0.622739586621142 -s 3 -d 1 -p ack -e 40 -c 2 -i 24 -a 2 -x {3.1 2.0 9 ------- null}
+ -t 0.622739586621142 -s 1 -d 2 -p ack -e 40 -c 2 -i 24 -a 2 -x {3.1 2.0 9 ------- null}
- -t 0.622739586621142 -s 1 -d 2 -p ack -e 40 -c 2 -i 24 -a 2 -x {3.1 2.0 9 ------- null}
h -t 0.622739586621142 -s 1 -d 2 -p ack -e 40 -c 2 -i 24 -a 2 -x {3.1 2.0 -1 ------- null}
r -t 0.622952919954476 -s 1 -d 3 -p tcp -e 1040 -c 2 -i 19 -a 2 -x {2.0 3.1 12 ------- null}
+ -t 0.622952919954476 -s 3 -d 1 -p ack -e 40 -c 2 -i 29 -a 2 -x {3.1 2.0 12 ------- null}
- -t 0.622952919954476 -s 3 -d 1 -p ack -e 40 -c 2 -i 29 -a 2 -x {3.1 2.0 12 ------- null}
h -t 0.622952919954476 -s 3 -d 1 -p ack -e 40 -c 2 -i 29 -a 2 -x {3.1 2.0 -1 ------- null}
- -t 0.623920919954476 -s 2 -d 1 -p tcp -e 1040 -c 2 -i 28 -a 2 -x {2.0 3.1 16 ------- null}
h -t 0.623920919954476 -s 2 -d 1 -p tcp -e 1040 -c 2 -i 28 -a 2 -x {2.0 3.1 -1 ------- null}
r -t 0.625030253287809 -s 1 -d 2 -p ack -e 40 -c 2 -i 23 -a 2 -x {3.1 2.0 8 ------- null}
+ -t 0.625030253287809 -s 2 -d 1 -p tcp -e 1040 -c 2 -i 30 -a 2 -x {2.0 3.1 17 ------- null}
+ -t 0.625030253287809 -s 2 -d 1 -p tcp -e 1040 -c 2 -i 31 -a 2 -x {2.0 3.1 18 ------- null}
r -t 0.625512919954476 -s 3 -d 1 -p ack -e 40 -c 2 -i 25 -a 2 -x {3.1 2.0 10 ------- null}
+ -t 0.625512919954476 -s 1 -d 2 -p ack -e 40 -c 2 -i 25 -a 2 -x {3.1 2.0 10 ------- null}
- -t 0.625512919954476 -s 1 -d 2 -p ack -e 40 -c 2 -i 25 -a 2 -x {3.1 2.0 10 ------- null}
h -t 0.625512919954476 -s 1 -d 2 -p ack -e 40 -c 2 -i 25 -a 2 -x {3.1 2.0 -1 ------- null}
- -t 0.625584919954476 -s 2 -d 1 -p tcp -e 1040 -c 2 -i 30 -a 2 -x {2.0 3.1 17 ------- null}
h -t 0.625584919954476 -s 2 -d 1 -p tcp -e 1040 -c 2 -i 30 -a 2 -x {2.0 3.1 -1 ------- null}
r -t 0.625726253287809 -s 1 -d 3 -p tcp -e 1040 -c 2 -i 20 -a 2 -x {2.0 3.1 13 ------- null}
+ -t 0.625726253287809 -s 3 -d 1 -p ack -e 40 -c 2 -i 32 -a 2 -x {3.1 2.0 13 ------- null}
- -t 0.625726253287809 -s 3 -d 1 -p ack -e 40 -c 2 -i 32 -a 2 -x {3.1 2.0 13 ------- null}
h -t 0.625726253287809 -s 3 -d 1 -p ack -e 40 -c 2 -i 32 -a 2 -x {3.1 2.0 -1 ------- null}
- -t 0.627248919954476 -s 2 -d 1 -p tcp -e 1040 -c 2 -i 31 -a 2 -x {2.0 3.1 18 ------- null}
h -t 0.627248919954476 -s 2 -d 1 -p tcp -e 1040 -c 2 -i 31 -a 2 -x {2.0 3.1 -1 ------- null}
r -t 0.627803586621142 -s 1 -d 2 -p ack -e 40 -c 2 -i 24 -a 2 -x {3.1 2.0 9 ------- null}
+ -t 0.627803586621142 -s 2 -d 1 -p tcp -e 1040 -c 2 -i 33 -a 2 -x {2.0 3.1 19 ------- null}
+ -t 0.627803586621142 -s 2 -d 1 -p tcp -e 1040 -c 2 -i 34 -a 2 -x {2.0 3.1 20 ------- null}
r -t 0.628286253287809 -s 3 -d 1 -p ack -e 40 -c 2 -i 26 -a 2 -x {3.1 2.0 11 ------- null}
+ -t 0.628286253287809 -s 1 -d 2 -p ack -e 40 -c 2 -i 26 -a 2 -x {3.1 2.0 11 ------- null}
- -t 0.628286253287809 -s 1 -d 2 -p ack -e 40 -c 2 -i 26 -a 2 -x {3.1 2.0 11 ------- null}
h -t 0.628286253287809 -s 1 -d 2 -p ack -e 40 -c 2 -i 26 -a 2 -x {3.1 2.0 -1 ------- null}
r -t 0.628499586621142 -s 1 -d 3 -p tcp -e 1040 -c 2 -i 21 -a 2 -x {2.0 3.1 14 ------- null}
+ -t 0.628499586621142 -s 3 -d 1 -p ack -e 40 -c 2 -i 35 -a 2 -x {3.1 2.0 14 ------- null}
- -t 0.628499586621142 -s 3 -d 1 -p ack -e 40 -c 2 -i 35 -a 2 -x {3.1 2.0 14 ------- null}
h -t 0.628499586621142 -s 3 -d 1 -p ack -e 40 -c 2 -i 35 -a 2 -x {3.1 2.0 -1 ------- null}
- -t 0.628912919954476 -s 2 -d 1 -p tcp -e 1040 -c 2 -i 33 -a 2 -x {2.0 3.1 19 ------- null}
h -t 0.628912919954476 -s 2 -d 1 -p tcp -e 1040 -c 2 -i 33 -a 2 -x {2.0 3.1 -1 ------- null}
r -t 0.628920919954476 -s 2 -d 1 -p tcp -e 1040 -c 2 -i 27 -a 2 -x {2.0 3.1 15 ------- null}
+ -t 0.628920919954476 -s 1 -d 3 -p tcp -e 1040 -c 2 -i 27 -a 2 -x {2.0 3.1 15 ------- null}
- -t 0.628920919954476 -s 1 -d 3 -p tcp -e 1040 -c 2 -i 27 -a 2 -x {2.0 3.1 15 ------- null}
h -t 0.628920919954476 -s 1 -d 3 -p tcp -e 1040 -c 2 -i 27 -a 2 -x {2.0 3.1 -1 ------- null}
r -t 0.630576919954476 -s 1 -d 2 -p ack -e 40 -c 2 -i 25 -a 2 -x {3.1 2.0 10 ------- null}
+ -t 0.630576919954476 -s 2 -d 1 -p tcp -e 1040 -c 2 -i 36 -a 2 -x {2.0 3.1 21 ------- null}
+ -t 0.630576919954476 -s 2 -d 1 -p tcp -e 1040 -c 2 -i 37 -a 2 -x {2.0 3.1 22 ------- null}
- -t 0.630576919954476 -s 2 -d 1 -p tcp -e 1040 -c 2 -i 34 -a 2 -x {2.0 3.1 20 ------- null}
h -t 0.630576919954476 -s 2 -d 1 -p tcp -e 1040 -c 2 -i 34 -a 2 -x {2.0 3.1 -1 ------- null}
r -t 0.630584919954476 -s 2 -d 1 -p tcp -e 1040 -c 2 -i 28 -a 2 -x {2.0 3.1 16 ------- null}
+ -t 0.630584919954476 -s 1 -d 3 -p tcp -e 1040 -c 2 -i 28 -a 2 -x {2.0 3.1 16 ------- null}
r -t 0.631059586621142 -s 3 -d 1 -p ack -e 40 -c 2 -i 29 -a 2 -x {3.1 2.0 12 ------- null}
+ -t 0.631059586621142 -s 1 -d 2 -p ack -e 40 -c 2 -i 29 -a 2 -x {3.1 2.0 12 ------- null}
- -t 0.631059586621142 -s 1 -d 2 -p ack -e 40 -c 2 -i 29 -a 2 -x {3.1 2.0 12 ------- null}
h -t 0.631059586621142 -s 1 -d 2 -p ack -e 40 -c 2 -i 29 -a 2 -x {3.1 2.0 -1 ------- null}
- -t 0.631694253287809 -s 1 -d 3 -p tcp -e 1040 -c 2 -i 28 -a 2 -x {2.0 3.1 16 ------- null}
h -t 0.631694253287809 -s 1 -d 3 -p tcp -e 1040 -c 2 -i 28 -a 2 -x {2.0 3.1 -1 ------- null}
- -t 0.632240919954476 -s 2 -d 1 -p tcp -e 1040 -c 2 -i 36 -a 2 -x {2.0 3.1 21 ------- null}
h -t 0.632240919954476 -s 2 -d 1 -p tcp -e 1040 -c 2 -i 36 -a 2 -x {2.0 3.1 -1 ------- null}
r -t 0.632248919954476 -s 2 -d 1 -p tcp -e 1040 -c 2 -i 30 -a 2 -x {2.0 3.1 17 ------- null}
+ -t 0.632248919954476 -s 1 -d 3 -p tcp -e 1040 -c 2 -i 30 -a 2 -x {2.0 3.1 17 ------- null}
r -t 0.633350253287809 -s 1 -d 2 -p ack -e 40 -c 2 -i 26 -a 2 -x {3.1 2.0 11 ------- null}
+ -t 0.633350253287809 -s 2 -d 1 -p tcp -e 1040 -c 2 -i 38 -a 2 -x {2.0 3.1 23 ------- null}
+ -t 0.633350253287809 -s 2 -d 1 -p tcp -e 1040 -c 2 -i 39 -a 2 -x {2.0 3.1 24 ------- null}
r -t 0.633832919954476 -s 3 -d 1 -p ack -e 40 -c 2 -i 32 -a 2 -x {3.1 2.0 13 ------- null}
+ -t 0.633832919954476 -s 1 -d 2 -p ack -e 40 -c 2 -i 32 -a 2 -x {3.1 2.0 13 ------- null}
- -t 0.633832919954476 -s 1 -d 2 -p ack -e 40 -c 2 -i 32 -a 2 -x {3.1 2.0 13 ------- null}
h -t 0.633832919954476 -s 1 -d 2 -p ack -e 40 -c 2 -i 32 -a 2 -x {3.1 2.0 -1 ------- null}
- -t 0.633904919954476 -s 2 -d 1 -p tcp -e 1040 -c 2 -i 37 -a 2 -x {2.0 3.1 22 ------- null}
h -t 0.633904919954476 -s 2 -d 1 -p tcp -e 1040 -c 2 -i 37 -a 2 -x {2.0 3.1 -1 ------- null}
r -t 0.633912919954476 -s 2 -d 1 -p tcp -e 1040 -c 2 -i 31 -a 2 -x {2.0 3.1 18 ------- null}
+ -t 0.633912919954476 -s 1 -d 3 -p tcp -e 1040 -c 2 -i 31 -a 2 -x {2.0 3.1 18 ------- null}
- -t 0.634467586621142 -s 1 -d 3 -p tcp -e 1040 -c 2 -i 30 -a 2 -x {2.0 3.1 17 ------- null}
h -t 0.634467586621142 -s 1 -d 3 -p tcp -e 1040 -c 2 -i 30 -a 2 -x {2.0 3.1 -1 ------- null}
- -t 0.635568919954476 -s 2 -d 1 -p tcp -e 1040 -c 2 -i 38 -a 2 -x {2.0 3.1 23 ------- null}
h -t 0.635568919954476 -s 2 -d 1 -p tcp -e 1040 -c 2 -i 38 -a 2 -x {2.0 3.1 -1 ------- null}
r -t 0.635576919954476 -s 2 -d 1 -p tcp -e 1040 -c 2 -i 33 -a 2 -x {2.0 3.1 19 ------- null}
+ -t 0.635576919954476 -s 1 -d 3 -p tcp -e 1040 -c 2 -i 33 -a 2 -x {2.0 3.1 19 ------- null}
r -t 0.636123586621142 -s 1 -d 2 -p ack -e 40 -c 2 -i 29 -a 2 -x {3.1 2.0 12 ------- null}
+ -t 0.636123586621142 -s 2 -d 1 -p tcp -e 1040 -c 2 -i 40 -a 2 -x {2.0 3.1 25 ------- null}
+ -t 0.636123586621142 -s 2 -d 1 -p tcp -e 1040 -c 2 -i 41 -a 2 -x {2.0 3.1 26 ------- null}
r -t 0.636606253287809 -s 3 -d 1 -p ack -e 40 -c 2 -i 35 -a 2 -x {3.1 2.0 14 ------- null}
+ -t 0.636606253287809 -s 1 -d 2 -p ack -e 40 -c 2 -i 35 -a 2 -x {3.1 2.0 14 ------- null}
- -t 0.636606253287809 -s 1 -d 2 -p ack -e 40 -c 2 -i 35 -a 2 -x {3.1 2.0 14 ------- null}
h -t 0.636606253287809 -s 1 -d 2 -p ack -e 40 -c 2 -i 35 -a 2 -x {3.1 2.0 -1 ------- null}
- -t 0.637232919954476 -s 2 -d 1 -p tcp -e 1040 -c 2 -i 39 -a 2 -x {2.0 3.1 24 ------- null}
h -t 0.637232919954476 -s 2 -d 1 -p tcp -e 1040 -c 2 -i 39 -a 2 -x {2.0 3.1 -1 ------- null}
- -t 0.637240919954476 -s 1 -d 3 -p tcp -e 1040 -c 2 -i 31 -a 2 -x {2.0 3.1 18 ------- null}
h -t 0.637240919954476 -s 1 -d 3 -p tcp -e 1040 -c 2 -i 31 -a 2 -x {2.0 3.1 -1 ------- null}
r -t 0.637240919954476 -s 2 -d 1 -p tcp -e 1040 -c 2 -i 34 -a 2 -x {2.0 3.1 20 ------- null}
+ -t 0.637240919954476 -s 1 -d 3 -p tcp -e 1040 -c 2 -i 34 -a 2 -x {2.0 3.1 20 ------- null}
r -t 0.638896919954476 -s 1 -d 2 -p ack -e 40 -c 2 -i 32 -a 2 -x {3.1 2.0 13 ------- null}
+ -t 0.638896919954476 -s 2 -d 1 -p tcp -e 1040 -c 2 -i 42 -a 2 -x {2.0 3.1 27 ------- null}
+ -t 0.638896919954476 -s 2 -d 1 -p tcp -e 1040 -c 2 -i 43 -a 2 -x {2.0 3.1 28 ------- null}
- -t 0.638896919954476 -s 2 -d 1 -p tcp -e 1040 -c 2 -i 40 -a 2 -x {2.0 3.1 25 ------- null}
h -t 0.638896919954476 -s 2 -d 1 -p tcp -e 1040 -c 2 -i 40 -a 2 -x {2.0 3.1 -1 ------- null}
r -t 0.638904919954476 -s 2 -d 1 -p tcp -e 1040 -c 2 -i 36 -a 2 -x {2.0 3.1 21 ------- null}
+ -t 0.638904919954476 -s 1 -d 3 -p tcp -e 1040 -c 2 -i 36 -a 2 -x {2.0 3.1 21 ------- null}
r -t 0.639694253287809 -s 1 -d 3 -p tcp -e 1040 -c 2 -i 27 -a 2 -x {2.0 3.1 15 ------- null}
+ -t 0.639694253287809 -s 3 -d 1 -p ack -e 40 -c 2 -i 44 -a 2 -x {3.1 2.0 15 ------- null}
- -t 0.639694253287809 -s 3 -d 1 -p ack -e 40 -c 2 -i 44 -a 2 -x {3.1 2.0 15 ------- null}
h -t 0.639694253287809 -s 3 -d 1 -p ack -e 40 -c 2 -i 44 -a 2 -x {3.1 2.0 -1 ------- null}
- -t 0.640014253287809 -s 1 -d 3 -p tcp -e 1040 -c 2 -i 33 -a 2 -x {2.0 3.1 19 ------- null}
h -t 0.640014253287809 -s 1 -d 3 -p tcp -e 1040 -c 2 -i 33 -a 2 -x {2.0 3.1 -1 ------- null}
- -t 0.640560919954476 -s 2 -d 1 -p tcp -e 1040 -c 2 -i 41 -a 2 -x {2.0 3.1 26 ------- null}
h -t 0.640560919954476 -s 2 -d 1 -p tcp -e 1040 -c 2 -i 41 -a 2 -x {2.0 3.1 -1 ------- null}
r -t 0.640568919954476 -s 2 -d 1 -p tcp -e 1040 -c 2 -i 37 -a 2 -x {2.0 3.1 22 ------- null}
+ -t 0.640568919954476 -s 1 -d 3 -p tcp -e 1040 -c 2 -i 37 -a 2 -x {2.0 3.1 22 ------- null}
r -t 0.641670253287809 -s 1 -d 2 -p ack -e 40 -c 2 -i 35 -a 2 -x {3.1 2.0 14 ------- null}
+ -t 0.641670253287809 -s 2 -d 1 -p tcp -e 1040 -c 2 -i 45 -a 2 -x {2.0 3.1 29 ------- null}
+ -t 0.641670253287809 -s 2 -d 1 -p tcp -e 1040 -c 2 -i 46 -a 2 -x {2.0 3.1 30 ------- null}
- -t 0.642224919954476 -s 2 -d 1 -p tcp -e 1040 -c 2 -i 42 -a 2 -x {2.0 3.1 27 ------- null}
h -t 0.642224919954476 -s 2 -d 1 -p tcp -e 1040 -c 2 -i 42 -a 2 -x {2.0 3.1 -1 ------- null}
r -t 0.642232919954476 -s 2 -d 1 -p tcp -e 1040 -c 2 -i 38 -a 2 -x {2.0 3.1 23 ------- null}
+ -t 0.642232919954476 -s 1 -d 3 -p tcp -e 1040 -c 2 -i 38 -a 2 -x {2.0 3.1 23 ------- null}
r -t 0.642467586621142 -s 1 -d 3 -p tcp -e 1040 -c 2 -i 28 -a 2 -x {2.0 3.1 16 ------- null}
+ -t 0.642467586621142 -s 3 -d 1 -p ack -e 40 -c 2 -i 47 -a 2 -x {3.1 2.0 16 ------- null}
- -t 0.642467586621142 -s 3 -d 1 -p ack -e 40 -c 2 -i 47 -a 2 -x {3.1 2.0 16 ------- null}
h -t 0.642467586621142 -s 3 -d 1 -p ack -e 40 -c 2 -i 47 -a 2 -x {3.1 2.0 -1 ------- null}
- -t 0.642787586621142 -s 1 -d 3 -p tcp -e 1040 -c 2 -i 34 -a 2 -x {2.0 3.1 20 ------- null}
h -t 0.642787586621142 -s 1 -d 3 -p tcp -e 1040 -c 2 -i 34 -a 2 -x {2.0 3.1 -1 ------- null}
- -t 0.643888919954476 -s 2 -d 1 -p tcp -e 1040 -c 2 -i 43 -a 2 -x {2.0 3.1 28 ------- null}