+ 0.504092 2 1 tcp 40 ------- 2 2.0 3.1 0 0
- 0.504092 2 1 tcp 40 ------- 2 2.0 3.1 0 0
r 0.509156 2 1 tcp 40 ------- 2 2.0 3.1 0 0
+ 0.509156 1 3 tcp 40 ------- 2 2.0 3.1 0 0
- 0.509156 1 3 tcp 40 ------- 2 2.0 3.1 0 0
r 0.517262 1 3 tcp 40 ------- 2 2.0 3.1 0 0
+ 0.517262 3 1 ack 40 ------- 2 3.1 2.0 0 1
- 0.517262 3 1 ack 40 ------- 2 3.1 2.0 0 1
r 0.525369 3 1 ack 40 ------- 2 3.1 2.0 0 1
+ 0.525369 1 2 ack 40 ------- 2 3.1 2.0 0 1
- 0.525369 1 2 ack 40 ------- 2 3.1 2.0 0 1
r 0.530433 1 2 ack 40 ------- 2 3.1 2.0 0 1
+ 0.530433 2 1 tcp 1040 ------- 2 2.0 3.1 1 2
- 0.530433 2 1 tcp 1040 ------- 2 2.0 3.1 1 2
+ 0.530433 2 1 tcp 1040 ------- 2 2.0 3.1 2 3
- 0.532097 2 1 tcp 1040 ------- 2 2.0 3.1 2 3
r 0.537097 2 1 tcp 1040 ------- 2 2.0 3.1 1 2
+ 0.537097 1 3 tcp 1040 ------- 2 2.0 3.1 1 2
- 0.537097 1 3 tcp 1040 ------- 2 2.0 3.1 1 2
r 0.538761 2 1 tcp 1040 ------- 2 2.0 3.1 2 3
+ 0.538761 1 3 tcp 1040 ------- 2 2.0 3.1 2 3
- 0.53987 1 3 tcp 1040 ------- 2 2.0 3.1 2 3
r 0.54787 1 3 tcp 1040 ------- 2 2.0 3.1 1 2
+ 0.54787 3 1 ack 40 ------- 2 3.1 2.0 1 4
- 0.54787 3 1 ack 40 ------- 2 3.1 2.0 1 4
r 0.550644 1 3 tcp 1040 ------- 2 2.0 3.1 2 3
+ 0.550644 3 1 ack 40 ------- 2 3.1 2.0 2 5
- 0.550644 3 1 ack 40 ------- 2 3.1 2.0 2 5
r 0.555977 3 1 ack 40 ------- 2 3.1 2.0 1 4
+ 0.555977 1 2 ack 40 ------- 2 3.1 2.0 1 4
- 0.555977 1 2 ack 40 ------- 2 3.1 2.0 1 4
r 0.55875 3 1 ack 40 ------- 2 3.1 2.0 2 5
+ 0.55875 1 2 ack 40 ------- 2 3.1 2.0 2 5
- 0.55875 1 2 ack 40 ------- 2 3.1 2.0 2 5
r 0.561041 1 2 ack 40 ------- 2 3.1 2.0 1 4
+ 0.561041 2 1 tcp 1040 ------- 2 2.0 3.1 3 6
- 0.561041 2 1 tcp 1040 ------- 2 2.0 3.1 3 6
+ 0.561041 2 1 tcp 1040 ------- 2 2.0 3.1 4 7
- 0.562705 2 1 tcp 1040 ------- 2 2.0 3.1 4 7
r 0.563814 1 2 ack 40 ------- 2 3.1 2.0 2 5
+ 0.563814 2 1 tcp 1040 ------- 2 2.0 3.1 5 8
+ 0.563814 2 1 tcp 1040 ------- 2 2.0 3.1 6 9
- 0.564369 2 1 tcp 1040 ------- 2 2.0 3.1 5 8
- 0.566033 2 1 tcp 1040 ------- 2 2.0 3.1 6 9
r 0.567705 2 1 tcp 1040 ------- 2 2.0 3.1 3 6
+ 0.567705 1 3 tcp 1040 ------- 2 2.0 3.1 3 6
- 0.567705 1 3 tcp 1040 ------- 2 2.0 3.1 3 6
r 0.569369 2 1 tcp 1040 ------- 2 2.0 3.1 4 7
+ 0.569369 1 3 tcp 1040 ------- 2 2.0 3.1 4 7
- 0.570478 1 3 tcp 1040 ------- 2 2.0 3.1 4 7
r 0.571033 2 1 tcp 1040 ------- 2 2.0 3.1 5 8
+ 0.571033 1 3 tcp 1040 ------- 2 2.0 3.1 5 8
r 0.572697 2 1 tcp 1040 ------- 2 2.0 3.1 6 9
+ 0.572697 1 3 tcp 1040 ------- 2 2.0 3.1 6 9
- 0.573252 1 3 tcp 1040 ------- 2 2.0 3.1 5 8
- 0.576025 1 3 tcp 1040 ------- 2 2.0 3.1 6 9
r 0.578478 1 3 tcp 1040 ------- 2 2.0 3.1 3 6
+ 0.578478 3 1 ack 40 ------- 2 3.1 2.0 3 10
- 0.578478 3 1 ack 40 ------- 2 3.1 2.0 3 10
r 0.581252 1 3 tcp 1040 ------- 2 2.0 3.1 4 7
+ 0.581252 3 1 ack 40 ------- 2 3.1 2.0 4 11
- 0.581252 3 1 ack 40 ------- 2 3.1 2.0 4 11
r 0.584025 1 3 tcp 1040 ------- 2 2.0 3.1 5 8
+ 0.584025 3 1 ack 40 ------- 2 3.1 2.0 5 12
- 0.584025 3 1 ack 40 ------- 2 3.1 2.0 5 12
r 0.586585 3 1 ack 40 ------- 2 3.1 2.0 3 10
+ 0.586585 1 2 ack 40 ------- 2 3.1 2.0 3 10
- 0.586585 1 2 ack 40 ------- 2 3.1 2.0 3 10
r 0.586798 1 3 tcp 1040 ------- 2 2.0 3.1 6 9
+ 0.586798 3 1 ack 40 ------- 2 3.1 2.0 6 13
- 0.586798 3 1 ack 40 ------- 2 3.1 2.0 6 13
r 0.589358 3 1 ack 40 ------- 2 3.1 2.0 4 11
+ 0.589358 1 2 ack 40 ------- 2 3.1 2.0 4 11
- 0.589358 1 2 ack 40 ------- 2 3.1 2.0 4 11
r 0.591649 1 2 ack 40 ------- 2 3.1 2.0 3 10
+ 0.591649 2 1 tcp 1040 ------- 2 2.0 3.1 7 14
- 0.591649 2 1 tcp 1040 ------- 2 2.0 3.1 7 14
+ 0.591649 2 1 tcp 1040 ------- 2 2.0 3.1 8 15
r 0.592132 3 1 ack 40 ------- 2 3.1 2.0 5 12
+ 0.592132 1 2 ack 40 ------- 2 3.1 2.0 5 12
- 0.592132 1 2 ack 40 ------- 2 3.1 2.0 5 12
- 0.593313 2 1 tcp 1040 ------- 2 2.0 3.1 8 15
r 0.594422 1 2 ack 40 ------- 2 3.1 2.0 4 11
+ 0.594422 2 1 tcp 1040 ------- 2 2.0 3.1 9 16
+ 0.594422 2 1 tcp 1040 ------- 2 2.0 3.1 10 17
r 0.594905 3 1 ack 40 ------- 2 3.1 2.0 6 13
+ 0.594905 1 2 ack 40 ------- 2 3.1 2.0 6 13
- 0.594905 1 2 ack 40 ------- 2 3.1 2.0 6 13
- 0.594977 2 1 tcp 1040 ------- 2 2.0 3.1 9 16
- 0.596641 2 1 tcp 1040 ------- 2 2.0 3.1 10 17
r 0.597196 1 2 ack 40 ------- 2 3.1 2.0 5 12
+ 0.597196 2 1 tcp 1040 ------- 2 2.0 3.1 11 18
+ 0.597196 2 1 tcp 1040 ------- 2 2.0 3.1 12 19
- 0.598305 2 1 tcp 1040 ------- 2 2.0 3.1 11 18
r 0.598313 2 1 tcp 1040 ------- 2 2.0 3.1 7 14
+ 0.598313 1 3 tcp 1040 ------- 2 2.0 3.1 7 14
- 0.598313 1 3 tcp 1040 ------- 2 2.0 3.1 7 14
r 0.599969 1 2 ack 40 ------- 2 3.1 2.0 6 13
+ 0.599969 2 1 tcp 1040 ------- 2 2.0 3.1 13 20
+ 0.599969 2 1 tcp 1040 ------- 2 2.0 3.1 14 21
- 0.599969 2 1 tcp 1040 ------- 2 2.0 3.1 12 19
r 0.599977 2 1 tcp 1040 ------- 2 2.0 3.1 8 15
+ 0.599977 1 3 tcp 1040 ------- 2 2.0 3.1 8 15
- 0.601086 1 3 tcp 1040 ------- 2 2.0 3.1 8 15
- 0.601633 2 1 tcp 1040 ------- 2 2.0 3.1 13 20
r 0.601641 2 1 tcp 1040 ------- 2 2.0 3.1 9 16
+ 0.601641 1 3 tcp 1040 ------- 2 2.0 3.1 9 16
- 0.603297 2 1 tcp 1040 ------- 2 2.0 3.1 14 21
r 0.603305 2 1 tcp 1040 ------- 2 2.0 3.1 10 17
+ 0.603305 1 3 tcp 1040 ------- 2 2.0 3.1 10 17
- 0.60386 1 3 tcp 1040 ------- 2 2.0 3.1 9 16
r 0.604969 2 1 tcp 1040 ------- 2 2.0 3.1 11 18
+ 0.604969 1 3 tcp 1040 ------- 2 2.0 3.1 11 18
- 0.606633 1 3 tcp 1040 ------- 2 2.0 3.1 10 17
r 0.606633 2 1 tcp 1040 ------- 2 2.0 3.1 12 19
+ 0.606633 1 3 tcp 1040 ------- 2 2.0 3.1 12 19
r 0.608297 2 1 tcp 1040 ------- 2 2.0 3.1 13 20
+ 0.608297 1 3 tcp 1040 ------- 2 2.0 3.1 13 20
r 0.609086 1 3 tcp 1040 ------- 2 2.0 3.1 7 14
+ 0.609086 3 1 ack 40 ------- 2 3.1 2.0 7 22
- 0.609086 3 1 ack 40 ------- 2 3.1 2.0 7 22
- 0.609406 1 3 tcp 1040 ------- 2 2.0 3.1 11 18
r 0.609961 2 1 tcp 1040 ------- 2 2.0 3.1 14 21
+ 0.609961 1 3 tcp 1040 ------- 2 2.0 3.1 14 21
r 0.61186 1 3 tcp 1040 ------- 2 2.0 3.1 8 15
+ 0.61186 3 1 ack 40 ------- 2 3.1 2.0 8 23
- 0.61186 3 1 ack 40 ------- 2 3.1 2.0 8 23
- 0.61218 1 3 tcp 1040 ------- 2 2.0 3.1 12 19
r 0.614633 1 3 tcp 1040 ------- 2 2.0 3.1 9 16
+ 0.614633 3 1 ack 40 ------- 2 3.1 2.0 9 24
- 0.614633 3 1 ack 40 ------- 2 3.1 2.0 9 24
- 0.614953 1 3 tcp 1040 ------- 2 2.0 3.1 13 20
r 0.617193 3 1 ack 40 ------- 2 3.1 2.0 7 22
+ 0.617193 1 2 ack 40 ------- 2 3.1 2.0 7 22
- 0.617193 1 2 ack 40 ------- 2 3.1 2.0 7 22
r 0.617406 1 3 tcp 1040 ------- 2 2.0 3.1 10 17
+ 0.617406 3 1 ack 40 ------- 2 3.1 2.0 10 25
- 0.617406 3 1 ack 40 ------- 2 3.1 2.0 10 25
- 0.617726 1 3 tcp 1040 ------- 2 2.0 3.1 14 21
r 0.619966 3 1 ack 40 ------- 2 3.1 2.0 8 23
+ 0.619966 1 2 ack 40 ------- 2 3.1 2.0 8 23
- 0.619966 1 2 ack 40 ------- 2 3.1 2.0 8 23
r 0.62018 1 3 tcp 1040 ------- 2 2.0 3.1 11 18
+ 0.62018 3 1 ack 40 ------- 2 3.1 2.0 11 26
- 0.62018 3 1 ack 40 ------- 2 3.1 2.0 11 26
r 0.622257 1 2 ack 40 ------- 2 3.1 2.0 7 22
+ 0.622257 2 1 tcp 1040 ------- 2 2.0 3.1 15 27
- 0.622257 2 1 tcp 1040 ------- 2 2.0 3.1 15 27
+ 0.622257 2 1 tcp 1040 ------- 2 2.0 3.1 16 28
r 0.62274 3 1 ack 40 ------- 2 3.1 2.0 9 24
+ 0.62274 1 2 ack 40 ------- 2 3.1 2.0 9 24
- 0.62274 1 2 ack 40 ------- 2 3.1 2.0 9 24
r 0.622953 1 3 tcp 1040 ------- 2 2.0 3.1 12 19
+ 0.622953 3 1 ack 40 ------- 2 3.1 2.0 12 29
- 0.622953 3 1 ack 40 ------- 2 3.1 2.0 12 29
- 0.623921 2 1 tcp 1040 ------- 2 2.0 3.1 16 28
r 0.62503 1 2 ack 40 ------- 2 3.1 2.0 8 23
+ 0.62503 2 1 tcp 1040 ------- 2 2.0 3.1 17 30
+ 0.62503 2 1 tcp 1040 ------- 2 2.0 3.1 18 31
r 0.625513 3 1 ack 40 ------- 2 3.1 2.0 10 25
+ 0.625513 1 2 ack 40 ------- 2 3.1 2.0 10 25
- 0.625513 1 2 ack 40 ------- 2 3.1 2.0 10 25
- 0.625585 2 1 tcp 1040 ------- 2 2.0 3.1 17 30
r 0.625726 1 3 tcp 1040 ------- 2 2.0 3.1 13 20
+ 0.625726 3 1 ack 40 ------- 2 3.1 2.0 13 32
- 0.625726 3 1 ack 40 ------- 2 3.1 2.0 13 32
- 0.627249 2 1 tcp 1040 ------- 2 2.0 3.1 18 31
r 0.627804 1 2 ack 40 ------- 2 3.1 2.0 9 24
+ 0.627804 2 1 tcp 1040 ------- 2 2.0 3.1 19 33
+ 0.627804 2 1 tcp 1040 ------- 2 2.0 3.1 20 34
r 0.628286 3 1 ack 40 ------- 2 3.1 2.0 11 26
+ 0.628286 1 2 ack 40 ------- 2 3.1 2.0 11 26
- 0.628286 1 2 ack 40 ------- 2 3.1 2.0 11 26
r 0.6285 1 3 tcp 1040 ------- 2 2.0 3.1 14 21
+ 0.6285 3 1 ack 40 ------- 2 3.1 2.0 14 35
- 0.6285 3 1 ack 40 ------- 2 3.1 2.0 14 35
- 0.628913 2 1 tcp 1040 ------- 2 2.0 3.1 19 33
r 0.628921 2 1 tcp 1040 ------- 2 2.0 3.1 15 27
+ 0.628921 1 3 tcp 1040 ------- 2 2.0 3.1 15 27
- 0.628921 1 3 tcp 1040 ------- 2 2.0 3.1 15 27
r 0.630577 1 2 ack 40 ------- 2 3.1 2.0 10 25
+ 0.630577 2 1 tcp 1040 ------- 2 2.0 3.1 21 36
+ 0.630577 2 1 tcp 1040 ------- 2 2.0 3.1 22 37
- 0.630577 2 1 tcp 1040 ------- 2 2.0 3.1 20 34
r 0.630585 2 1 tcp 1040 ------- 2 2.0 3.1 16 28
+ 0.630585 1 3 tcp 1040 ------- 2 2.0 3.1 16 28
r 0.63106 3 1 ack 40 ------- 2 3.1 2.0 12 29
+ 0.63106 1 2 ack 40 ------- 2 3.1 2.0 12 29
- 0.63106 1 2 ack 40 ------- 2 3.1 2.0 12 29
- 0.631694 1 3 tcp 1040 ------- 2 2.0 3.1 16 28
- 0.632241 2 1 tcp 1040 ------- 2 2.0 3.1 21 36
r 0.632249 2 1 tcp 1040 ------- 2 2.0 3.1 17 30
+ 0.632249 1 3 tcp 1040 ------- 2 2.0 3.1 17 30
r 0.63335 1 2 ack 40 ------- 2 3.1 2.0 11 26
+ 0.63335 2 1 tcp 1040 ------- 2 2.0 3.1 23 38
+ 0.63335 2 1 tcp 1040 ------- 2 2.0 3.1 24 39
r 0.633833 3 1 ack 40 ------- 2 3.1 2.0 13 32
+ 0.633833 1 2 ack 40 ------- 2 3.1 2.0 13 32
- 0.633833 1 2 ack 40 ------- 2 3.1 2.0 13 32
- 0.633905 2 1 tcp 1040 ------- 2 2.0 3.1 22 37
r 0.633913 2 1 tcp 1040 ------- 2 2.0 3.1 18 31
+ 0.633913 1 3 tcp 1040 ------- 2 2.0 3.1 18 31
- 0.634468 1 3 tcp 1040 ------- 2 2.0 3.1 17 30
- 0.635569 2 1 tcp 1040 ------- 2 2.0 3.1 23 38
r 0.635577 2 1 tcp 1040 ------- 2 2.0 3.1 19 33
+ 0.635577 1 3 tcp 1040 ------- 2 2.0 3.1 19 33
r 0.636124 1 2 ack 40 ------- 2 3.1 2.0 12 29
+ 0.636124 2 1 tcp 1040 ------- 2 2.0 3.1 25 40
+ 0.636124 2 1 tcp 1040 ------- 2 2.0 3.1 26 41
r 0.636606 3 1 ack 40 ------- 2 3.1 2.0 14 35
+ 0.636606 1 2 ack 40 ------- 2 3.1 2.0 14 35
- 0.636606 1 2 ack 40 ------- 2 3.1 2.0 14 35
- 0.637233 2 1 tcp 1040 ------- 2 2.0 3.1 24 39
- 0.637241 1 3 tcp 1040 ------- 2 2.0 3.1 18 31
r 0.637241 2 1 tcp 1040 ------- 2 2.0 3.1 20 34
+ 0.637241 1 3 tcp 1040 ------- 2 2.0 3.1 20 34
r 0.638897 1 2 ack 40 ------- 2 3.1 2.0 13 32
+ 0.638897 2 1 tcp 1040 ------- 2 2.0 3.1 27 42
+ 0.638897 2 1 tcp 1040 ------- 2 2.0 3.1 28 43
- 0.638897 2 1 tcp 1040 ------- 2 2.0 3.1 25 40
r 0.638905 2 1 tcp 1040 ------- 2 2.0 3.1 21 36
+ 0.638905 1 3 tcp 1040 ------- 2 2.0 3.1 21 36
r 0.639694 1 3 tcp 1040 ------- 2 2.0 3.1 15 27
+ 0.639694 3 1 ack 40 ------- 2 3.1 2.0 15 44
- 0.639694 3 1 ack 40 ------- 2 3.1 2.0 15 44
- 0.640014 1 3 tcp 1040 ------- 2 2.0 3.1 19 33
- 0.640561 2 1 tcp 1040 ------- 2 2.0 3.1 26 41
r 0.640569 2 1 tcp 1040 ------- 2 2.0 3.1 22 37
+ 0.640569 1 3 tcp 1040 ------- 2 2.0 3.1 22 37
r 0.64167 1 2 ack 40 ------- 2 3.1 2.0 14 35
+ 0.64167 2 1 tcp 1040 ------- 2 2.0 3.1 29 45
+ 0.64167 2 1 tcp 1040 ------- 2 2.0 3.1 30 46
- 0.642225 2 1 tcp 1040 ------- 2 2.0 3.1 27 42
r 0.642233 2 1 tcp 1040 ------- 2 2.0 3.1 23 38
+ 0.642233 1 3 tcp 1040 ------- 2 2.0 3.1 23 38
r 0.642468 1 3 tcp 1040 ------- 2 2.0 3.1 16 28
+ 0.642468 3 1 ack 40 ------- 2 3.1 2.0 16 47
- 0.642468 3 1 ack 40 ------- 2 3.1 2.0 16 47
- 0.642788 1 3 tcp 1040 ------- 2 2.0 3.1 20 34
- 0.643889 2 1 tcp 1040 ------- 2 2.0 3.1 28 43
r 0.643897 2 1 tcp 1040 ------- 2 2.0 3.1 24 39
+ 0.643897 1 3 tcp 1040 ------- 2 2.0 3.1 24 39
r 0.645241 1 3 tcp 1040 ------- 2 2.0 3.1 17 30
+ 0.645241 3 1 ack 40 ------- 2 3.1 2.0 17 48
- 0.645241 3 1 ack 40 ------- 2 3.1 2.0 17 48
- 0.645553 2 1 tcp 1040 ------- 2 2.0 3.1 29 45
- 0.645561 1 3 tcp 1040 ------- 2 2.0 3.1 21 36
r 0.645561 2 1 tcp 1040 ------- 2 2.0 3.1 25 40
+ 0.645561 1 3 tcp 1040 ------- 2 2.0 3.1 25 40
- 0.647217 2 1 tcp 1040 ------- 2 2.0 3.1 30 46
r 0.647225 2 1 tcp 1040 ------- 2 2.0 3.1 26 41
+ 0.647225 1 3 tcp 1040 ------- 2 2.0 3.1 26 41
r 0.647801 3 1 ack 40 ------- 2 3.1 2.0 15 44
+ 0.647801 1 2 ack 40 ------- 2 3.1 2.0 15 44
- 0.647801 1 2 ack 40 ------- 2 3.1 2.0 15 44
r 0.648014 1 3 tcp 1040 ------- 2 2.0 3.1 18 31
+ 0.648014 3 1 ack 40 ------- 2 3.1 2.0 18 49
- 0.648014 3 1 ack 40 ------- 2 3.1 2.0 18 49
- 0.648334 1 3 tcp 1040 ------- 2 2.0 3.1 22 37
r 0.648889 2 1 tcp 1040 ------- 2 2.0 3.1 27 42
+ 0.648889 1 3 tcp 1040 ------- 2 2.0 3.1 27 42
r 0.650553 2 1 tcp 1040 ------- 2 2.0 3.1 28 43
+ 0.650553 1 3 tcp 1040 ------- 2 2.0 3.1 28 43
r 0.650574 3 1 ack 40 ------- 2 3.1 2.0 16 47
+ 0.650574 1 2 ack 40 ------- 2 3.1 2.0 16 47
- 0.650574 1 2 ack 40 ------- 2 3.1 2.0 16 47
r 0.650788 1 3 tcp 1040 ------- 2 2.0 3.1 19 33
+ 0.650788 3 1 ack 40 ------- 2 3.1 2.0 19 50
- 0.650788 3 1 ack 40 ------- 2 3.1 2.0 19 50
- 0.651108 1 3 tcp 1040 ------- 2 2.0 3.1 23 38
r 0.652217 2 1 tcp 1040 ------- 2 2.0 3.1 29 45
+ 0.652217 1 3 tcp 1040 ------- 2 2.0 3.1 29 45
r 0.652865 1 2 ack 40 ------- 2 3.1 2.0 15 44
+ 0.652865 2 1 tcp 1040 ------- 2 2.0 3.1 31 51
- 0.652865 2 1 tcp 1040 ------- 2 2.0 3.1 31 51
+ 0.652865 2 1 tcp 1040 ------- 2 2.0 3.1 32 52
r 0.653348 3 1 ack 40 ------- 2 3.1 2.0 17 48
+ 0.653348 1 2 ack 40 ------- 2 3.1 2.0 17 48
- 0.653348 1 2 ack 40 ------- 2 3.1 2.0 17 48
r 0.653561 1 3 tcp 1040 ------- 2 2.0 3.1 20 34
+ 0.653561 3 1 ack 40 ------- 2 3.1 2.0 20 53
- 0.653561 3 1 ack 40 ------- 2 3.1 2.0 20 53
- 0.653881 1 3 tcp 1040 ------- 2 2.0 3.1 24 39
r 0.653881 2 1 tcp 1040 ------- 2 2.0 3.1 30 46
+ 0.653881 1 3 tcp 1040 ------- 2 2.0 3.1 30 46
- 0.654529 2 1 tcp 1040 ------- 2 2.0 3.1 32 52
r 0.655638 1 2 ack 40 ------- 2 3.1 2.0 16 47
+ 0.655638 2 1 tcp 1040 ------- 2 2.0 3.1 33 54
r 0.656121 3 1 ack 40 ------- 2 3.1 2.0 18 49
+ 0.656121 1 2 ack 40 ------- 2 3.1 2.0 18 49
- 0.656121 1 2 ack 40 ------- 2 3.1 2.0 18 49
- 0.656193 2 1 tcp 1040 ------- 2 2.0 3.1 33 54
r 0.656334 1 3 tcp 1040 ------- 2 2.0 3.1 21 36
+ 0.656334 3 1 ack 40 ------- 2 3.1 2.0 21 55
- 0.656334 3 1 ack 40 ------- 2 3.1 2.0 21 55
- 0.656654 1 3 tcp 1040 ------- 2 2.0 3.1 25 40
r 0.658412 1 2 ack 40 ------- 2 3.1 2.0 17 48
r 0.658894 3 1 ack 40 ------- 2 3.1 2.0 19 50
+ 0.658894 1 2 ack 40 ------- 2 3.1 2.0 19 50
- 0.658894 1 2 ack 40 ------- 2 3.1 2.0 19 50
r 0.659108 1 3 tcp 1040 ------- 2 2.0 3.1 22 37
+ 0.659108 3 1 ack 40 ------- 2 3.1 2.0 22 56
- 0.659108 3 1 ack 40 ------- 2 3.1 2.0 22 56
+ 0.659373 2 1 tcp 1040 ------- 2 2.0 3.1 34 57
- 0.659373 2 1 tcp 1040 ------- 2 2.0 3.1 34 57
- 0.659428 1 3 tcp 1040 ------- 2 2.0 3.1 26 41
r 0.659529 2 1 tcp 1040 ------- 2 2.0 3.1 31 51
+ 0.659529 1 3 tcp 1040 ------- 2 2.0 3.1 31 51
r 0.661185 1 2 ack 40 ------- 2 3.1 2.0 18 49
r 0.661193 2 1 tcp 1040 ------- 2 2.0 3.1 32 52
+ 0.661193 1 3 tcp 1040 ------- 2 2.0 3.1 32 52
r 0.661668 3 1 ack 40 ------- 2 3.1 2.0 20 53
+ 0.661668 1 2 ack 40 ------- 2 3.1 2.0 20 53
- 0.661668 1 2 ack 40 ------- 2 3.1 2.0 20 53
r 0.661881 1 3 tcp 1040 ------- 2 2.0 3.1 23 38
+ 0.661881 3 1 ack 40 ------- 2 3.1 2.0 23 58
- 0.661881 3 1 ack 40 ------- 2 3.1 2.0 23 58
- 0.662201 1 3 tcp 1040 ------- 2 2.0 3.1 27 42
r 0.662857 2 1 tcp 1040 ------- 2 2.0 3.1 33 54
+ 0.662857 1 3 tcp 1040 ------- 2 2.0 3.1 33 54
r 0.663958 1 2 ack 40 ------- 2 3.1 2.0 19 50
r 0.664441 3 1 ack 40 ------- 2 3.1 2.0 21 55
+ 0.664441 1 2 ack 40 ------- 2 3.1 2.0 21 55
- 0.664441 1 2 ack 40 ------- 2 3.1 2.0 21 55
r 0.664654 1 3 tcp 1040 ------- 2 2.0 3.1 24 39
+ 0.664654 3 1 ack 40 ------- 2 3.1 2.0 24 59
- 0.664654 3 1 ack 40 ------- 2 3.1 2.0 24 59
- 0.664974 1 3 tcp 1040 ------- 2 2.0 3.1 28 43
r 0.666037 2 1 tcp 1040 ------- 2 2.0 3.1 34 57
+ 0.666037 1 3 tcp 1040 ------- 2 2.0 3.1 34 57
r 0.666732 1 2 ack 40 ------- 2 3.1 2.0 20 53
r 0.667214 3 1 ack 40 ------- 2 3.1 2.0 22 56
+ 0.667214 1 2 ack 40 ------- 2 3.1 2.0 22 56
- 0.667214 1 2 ack 40 ------- 2 3.1 2.0 22 56
r 0.667428 1 3 tcp 1040 ------- 2 2.0 3.1 25 40
+ 0.667428 3 1 ack 40 ------- 2 3.1 2.0 25 60
- 0.667428 3 1 ack 40 ------- 2 3.1 2.0 25 60
+ 0.667746 2 1 tcp 1040 ------- 2 2.0 3.1 35 61
- 0.667746 2 1 tcp 1040 ------- 2 2.0 3.1 35 61
- 0.667748 1 3 tcp 1040 ------- 2 2.0 3.1 29 45
+ 0.668343 2 1 tcp 1040 ------- 2 2.0 3.1 36 62
+ 0.668619 2 1 tcp 1040 ------- 2 2.0 3.1 37 63
+ 0.669195 2 1 tcp 1040 ------- 2 2.0 3.1 38 64
- 0.66941 2 1 tcp 1040 ------- 2 2.0 3.1 36 62
r 0.669505 1 2 ack 40 ------- 2 3.1 2.0 21 55
r 0.669988 3 1 ack 40 ------- 2 3.1 2.0 23 58
+ 0.669988 1 2 ack 40 ------- 2 3.1 2.0 23 58
- 0.669988 1 2 ack 40 ------- 2 3.1 2.0 23 58
r 0.670201 1 3 tcp 1040 ------- 2 2.0 3.1 26 41
+ 0.670201 3 1 ack 40 ------- 2 3.1 2.0 26 65
- 0.670201 3 1 ack 40 ------- 2 3.1 2.0 26 65
- 0.670521 1 3 tcp 1040 ------- 2 2.0 3.1 30 46
- 0.671074 2 1 tcp 1040 ------- 2 2.0 3.1 37 63
r 0.672278 1 2 ack 40 ------- 2 3.1 2.0 22 56
- 0.672738 2 1 tcp 1040 ------- 2 2.0 3.1 38 64
r 0.672761 3 1 ack 40 ------- 2 3.1 2.0 24 59
+ 0.672761 1 2 ack 40 ------- 2 3.1 2.0 24 59
- 0.672761 1 2 ack 40 ------- 2 3.1 2.0 24 59
r 0.672974 1 3 tcp 1040 ------- 2 2.0 3.1 27 42
+ 0.672974 3 1 ack 40 ------- 2 3.1 2.0 27 66
- 0.672974 3 1 ack 40 ------- 2 3.1 2.0 27 66
- 0.673294 1 3 tcp 1040 ------- 2 2.0 3.1 31 51
r 0.67441 2 1 tcp 1040 ------- 2 2.0 3.1 35 61
+ 0.67441 1 3 tcp 1040 ------- 2 2.0 3.1 35 61
r 0.675052 1 2 ack 40 ------- 2 3.1 2.0 23 58
r 0.675534 3 1 ack 40 ------- 2 3.1 2.0 25 60
+ 0.675534 1 2 ack 40 ------- 2 3.1 2.0 25 60
- 0.675534 1 2 ack 40 ------- 2 3.1 2.0 25 60
r 0.675748 1 3 tcp 1040 ------- 2 2.0 3.1 28 43
+ 0.675748 3 1 ack 40 ------- 2 3.1 2.0 28 67
- 0.675748 3 1 ack 40 ------- 2 3.1 2.0 28 67
- 0.676068 1 3 tcp 1040 ------- 2 2.0 3.1 32 52
r 0.676074 2 1 tcp 1040 ------- 2 2.0 3.1 36 62
+ 0.676074 1 3 tcp 1040 ------- 2 2.0 3.1 36 62
r 0.677738 2 1 tcp 1040 ------- 2 2.0 3.1 37 63
+ 0.677738 1 3 tcp 1040 ------- 2 2.0 3.1 37 63
r 0.677825 1 2 ack 40 ------- 2 3.1 2.0 24 59
r 0.678308 3 1 ack 40 ------- 2 3.1 2.0 26 65
+ 0.678308 1 2 ack 40 ------- 2 3.1 2.0 26 65
- 0.678308 1 2 ack 40 ------- 2 3.1 2.0 26 65
r 0.678521 1 3 tcp 1040 ------- 2 2.0 3.1 29 45
+ 0.678521 3 1 ack 40 ------- 2 3.1 2.0 29 68
- 0.678521 3 1 ack 40 ------- 2 3.1 2.0 29 68
- 0.678841 1 3 tcp 1040 ------- 2 2.0 3.1 33 54
r 0.679402 2 1 tcp 1040 ------- 2 2.0 3.1 38 64
+ 0.679402 1 3 tcp 1040 ------- 2 2.0 3.1 38 64
+ 0.680139 2 1 tcp 1040 ------- 2 2.0 3.1 39 69
- 0.680139 2 1 tcp 1040 ------- 2 2.0 3.1 39 69
r 0.680598 1 2 ack 40 ------- 2 3.1 2.0 25 60
r 0.681081 3 1 ack 40 ------- 2 3.1 2.0 27 66
+ 0.681081 1 2 ack 40 ------- 2 3.1 2.0 27 66
- 0.681081 1 2 ack 40 ------- 2 3.1 2.0 27 66
r 0.681294 1 3 tcp 1040 ------- 2 2.0 3.1 30 46
+ 0.681294 3 1 ack 40 ------- 2 3.1 2.0 30 70
- 0.681294 3 1 ack 40 ------- 2 3.1 2.0 30 70
- 0.681614 1 3 tcp 1040 ------- 2 2.0 3.1 34 57
r 0.683372 1 2 ack 40 ------- 2 3.1 2.0 26 65
r 0.683854 3 1 ack 40 ------- 2 3.1 2.0 28 67
+ 0.683854 1 2 ack 40 ------- 2 3.1 2.0 28 67
- 0.683854 1 2 ack 40 ------- 2 3.1 2.0 28 67
r 0.684068 1 3 tcp 1040 ------- 2 2.0 3.1 31 51
+ 0.684068 3 1 ack 40 ------- 2 3.1 2.0 31 71
- 0.684068 3 1 ack 40 ------- 2 3.1 2.0 31 71
- 0.684388 1 3 tcp 1040 ------- 2 2.0 3.1 35 61
r 0.686145 1 2 ack 40 ------- 2 3.1 2.0 27 66
r 0.686628 3 1 ack 40 ------- 2 3.1 2.0 29 68
+ 0.686628 1 2 ack 40 ------- 2 3.1 2.0 29 68
- 0.686628 1 2 ack 40 ------- 2 3.1 2.0 29 68
r 0.686803 2 1 tcp 1040 ------- 2 2.0 3.1 39 69
+ 0.686803 1 3 tcp 1040 ------- 2 2.0 3.1 39 69
r 0.686841 1 3 tcp 1040 ------- 2 2.0 3.1 32 52
+ 0.686841 3 1 ack 40 ------- 2 3.1 2.0 32 72
- 0.686841 3 1 ack 40 ------- 2 3.1 2.0 32 72
- 0.687161 1 3 tcp 1040 ------- 2 2.0 3.1 36 62
r 0.688918 1 2 ack 40 ------- 2 3.1 2.0 28 67
r 0.689401 3 1 ack 40 ------- 2 3.1 2.0 30 70
+ 0.689401 1 2 ack 40 ------- 2 3.1 2.0 30 70
- 0.689401 1 2 ack 40 ------- 2 3.1 2.0 30 70
r 0.689614 1 3 tcp 1040 ------- 2 2.0 3.1 33 54
+ 0.689614 3 1 ack 40 ------- 2 3.1 2.0 33 73
- 0.689614 3 1 ack 40 ------- 2 3.1 2.0 33 73
- 0.689934 1 3 tcp 1040 ------- 2 2.0 3.1 37 63
r 0.691692 1 2 ack 40 ------- 2 3.1 2.0 29 68
r 0.692174 3 1 ack 40 ------- 2 3.1 2.0 31 71
+ 0.692174 1 2 ack 40 ------- 2 3.1 2.0 31 71
- 0.692174 1 2 ack 40 ------- 2 3.1 2.0 31 71
r 0.692388 1 3 tcp 1040 ------- 2 2.0 3.1 34 57
+ 0.692388 3 1 ack 40 ------- 2 3.1 2.0 34 74
- 0.692388 3 1 ack 40 ------- 2 3.1 2.0 34 74
- 0.692708 1 3 tcp 1040 ------- 2 2.0 3.1 38 64
+ 0.694341 2 1 tcp 1040 ------- 2 2.0 3.1 40 75
- 0.694341 2 1 tcp 1040 ------- 2 2.0 3.1 40 75
r 0.694465 1 2 ack 40 ------- 2 3.1 2.0 30 70
r 0.694948 3 1 ack 40 ------- 2 3.1 2.0 32 72
+ 0.694948 1 2 ack 40 ------- 2 3.1 2.0 32 72
- 0.694948 1 2 ack 40 ------- 2 3.1 2.0 32 72
r 0.695161 1 3 tcp 1040 ------- 2 2.0 3.1 35 61
+ 0.695161 3 1 ack 40 ------- 2 3.1 2.0 35 76
- 0.695161 3 1 ack 40 ------- 2 3.1 2.0 35 76
- 0.695481 1 3 tcp 1040 ------- 2 2.0 3.1 39 69
r 0.697238 1 2 ack 40 ------- 2 3.1 2.0 31 71
r 0.697721 3 1 ack 40 ------- 2 3.1 2.0 33 73
+ 0.697721 1 2 ack 40 ------- 2 3.1 2.0 33 73
- 0.697721 1 2 ack 40 ------- 2 3.1 2.0 33 73
r 0.697934 1 3 tcp 1040 ------- 2 2.0 3.1 36 62
+ 0.697934 3 1 ack 40 ------- 2 3.1 2.0 36 77
- 0.697934 3 1 ack 40 ------- 2 3.1 2.0 36 77
r 0.700012 1 2 ack 40 ------- 2 3.1 2.0 32 72
r 0.700494 3 1 ack 40 ------- 2 3.1 2.0 34 74
+ 0.700494 1 2 ack 40 ------- 2 3.1 2.0 34 74
- 0.700494 1 2 ack 40 ------- 2 3.1 2.0 34 74
r 0.700708 1 3 tcp 1040 ------- 2 2.0 3.1 37 63
+ 0.700708 3 1 ack 40 ------- 2 3.1 2.0 37 78
- 0.700708 3 1 ack 40 ------- 2 3.1 2.0 37 78
r 0.701005 2 1 tcp 1040 ------- 2 2.0 3.1 40 75
+ 0.701005 1 3 tcp 1040 ------- 2 2.0 3.1 40 75
- 0.701005 1 3 tcp 1040 ------- 2 2.0 3.1 40 75
r 0.702785 1 2 ack 40 ------- 2 3.1 2.0 33 73
r 0.703268 3 1 ack 40 ------- 2 3.1 2.0 35 76
+ 0.703268 1 2 ack 40 ------- 2 3.1 2.0 35 76
- 0.703268 1 2 ack 40 ------- 2 3.1 2.0 35 76
r 0.703481 1 3 tcp 1040 ------- 2 2.0 3.1 38 64
+ 0.703481 3 1 ack 40 ------- 2 3.1 2.0 38 79
- 0.703481 3 1 ack 40 ------- 2 3.1 2.0 38 79
r 0.705558 1 2 ack 40 ------- 2 3.1 2.0 34 74
r 0.706041 3 1 ack 40 ------- 2 3.1 2.0 36 77
+ 0.706041 1 2 ack 40 ------- 2 3.1 2.0 36 77
- 0.706041 1 2 ack 40 ------- 2 3.1 2.0 36 77
r 0.706254 1 3 tcp 1040 ------- 2 2.0 3.1 39 69
+ 0.706254 3 1 ack 40 ------- 2 3.1 2.0 39 80
- 0.706254 3 1 ack 40 ------- 2 3.1 2.0 39 80
r 0.708332 1 2 ack 40 ------- 2 3.1 2.0 35 76
r 0.708814 3 1 ack 40 ------- 2 3.1 2.0 37 78
+ 0.708814 1 2 ack 40 ------- 2 3.1 2.0 37 78
- 0.708814 1 2 ack 40 ------- 2 3.1 2.0 37 78
r 0.711105 1 2 ack 40 ------- 2 3.1 2.0 36 77
r 0.711588 3 1 ack 40 ------- 2 3.1 2.0 38 79
+ 0.711588 1 2 ack 40 ------- 2 3.1 2.0 38 79
- 0.711588 1 2 ack 40 ------- 2 3.1 2.0 38 79
r 0.711779 1 3 tcp 1040 ------- 2 2.0 3.1 40 75
+ 0.711779 3 1 ack 40 ------- 2 3.1 2.0 40 81
- 0.711779 3 1 ack 40 ------- 2 3.1 2.0 40 81
r 0.713878 1 2 ack 40 ------- 2 3.1 2.0 37 78
r 0.714361 3 1 ack 40 ------- 2 3.1 2.0 39 80
+ 0.714361 1 2 ack 40 ------- 2 3.1 2.0 39 80
- 0.714361 1 2 ack 40 ------- 2 3.1 2.0 39 80
r 0.716652 1 2 ack 40 ------- 2 3.1 2.0 38 79
+ 0.716979 2 1 tcp 1040 ------- 2 2.0 3.1 41 82
- 0.716979 2 1 tcp 1040 ------- 2 2.0 3.1 41 82
r 0.719425 1 2 ack 40 ------- 2 3.1 2.0 39 80
+ 0.719574 2 1 tcp 1040 ------- 2 2.0 3.1 42 83
- 0.719574 2 1 tcp 1040 ------- 2 2.0 3.1 42 83
r 0.719885 3 1 ack 40 ------- 2 3.1 2.0 40 81
+ 0.719885 1 2 ack 40 ------- 2 3.1 2.0 40 81
- 0.719885 1 2 ack 40 ------- 2 3.1 2.0 40 81
r 0.723643 2 1 tcp 1040 ------- 2 2.0 3.1 41 82
+ 0.723643 1 3 tcp 1040 ------- 2 2.0 3.1 41 82
- 0.723643 1 3 tcp 1040 ------- 2 2.0 3.1 41 82
r 0.724949 1 2 ack 40 ------- 2 3.1 2.0 40 81
+ 0.725033 2 1 tcp 1040 ------- 2 2.0 3.1 43 84
- 0.725033 2 1 tcp 1040 ------- 2 2.0 3.1 43 84
r 0.726238 2 1 tcp 1040 ------- 2 2.0 3.1 42 83
+ 0.726238 1 3 tcp 1040 ------- 2 2.0 3.1 42 83
- 0.726416 1 3 tcp 1040 ------- 2 2.0 3.1 42 83
r 0.731697 2 1 tcp 1040 ------- 2 2.0 3.1 43 84
+ 0.731697 1 3 tcp 1040 ------- 2 2.0 3.1 43 84
- 0.731697 1 3 tcp 1040 ------- 2 2.0 3.1 43 84
r 0.734416 1 3 tcp 1040 ------- 2 2.0 3.1 41 82
+ 0.734416 3 1 ack 40 ------- 2 3.1 2.0 41 85
- 0.734416 3 1 ack 40 ------- 2 3.1 2.0 41 85
+ 0.735506 2 1 tcp 1040 ------- 2 2.0 3.1 44 86
- 0.735506 2 1 tcp 1040 ------- 2 2.0 3.1 44 86
r 0.737189 1 3 tcp 1040 ------- 2 2.0 3.1 42 83
+ 0.737189 3 1 ack 40 ------- 2 3.1 2.0 42 87
- 0.737189 3 1 ack 40 ------- 2 3.1 2.0 42 87
+ 0.737519 2 1 tcp 1040 ------- 2 2.0 3.1 45 88
- 0.737519 2 1 tcp 1040 ------- 2 2.0 3.1 45 88
r 0.74217 2 1 tcp 1040 ------- 2 2.0 3.1 44 86
+ 0.74217 1 3 tcp 1040 ------- 2 2.0 3.1 44 86
- 0.74217 1 3 tcp 1040 ------- 2 2.0 3.1 44 86
r 0.74247 1 3 tcp 1040 ------- 2 2.0 3.1 43 84
+ 0.74247 3 1 ack 40 ------- 2 3.1 2.0 43 89
- 0.74247 3 1 ack 40 ------- 2 3.1 2.0 43 89
r 0.742523 3 1 ack 40 ------- 2 3.1 2.0 41 85
+ 0.742523 1 2 ack 40 ------- 2 3.1 2.0 41 85
- 0.742523 1 2 ack 40 ------- 2 3.1 2.0 41 85
r 0.744183 2 1 tcp 1040 ------- 2 2.0 3.1 45 88
+ 0.744183 1 3 tcp 1040 ------- 2 2.0 3.1 45 88
+ 0.744312 2 1 tcp 1040 ------- 2 2.0 3.1 46 90
- 0.744312 2 1 tcp 1040 ------- 2 2.0 3.1 46 90
- 0.744944 1 3 tcp 1040 ------- 2 2.0 3.1 45 88
r 0.745296 3 1 ack 40 ------- 2 3.1 2.0 42 87
+ 0.745296 1 2 ack 40 ------- 2 3.1 2.0 42 87
- 0.745296 1 2 ack 40 ------- 2 3.1 2.0 42 87
+ 0.746105 2 1 tcp 1040 ------- 2 2.0 3.1 47 91
- 0.746105 2 1 tcp 1040 ------- 2 2.0 3.1 47 91
r 0.747587 1 2 ack 40 ------- 2 3.1 2.0 41 85
+ 0.749142 2 1 tcp 1040 ------- 2 2.0 3.1 48 92
- 0.749142 2 1 tcp 1040 ------- 2 2.0 3.1 48 92
+ 0.7498 2 1 tcp 1040 ------- 2 2.0 3.1 49 93
r 0.75036 1 2 ack 40 ------- 2 3.1 2.0 42 87
r 0.750577 3 1 ack 40 ------- 2 3.1 2.0 43 89
+ 0.750577 1 2 ack 40 ------- 2 3.1 2.0 43 89
- 0.750577 1 2 ack 40 ------- 2 3.1 2.0 43 89
- 0.750806 2 1 tcp 1040 ------- 2 2.0 3.1 49 93
r 0.750976 2 1 tcp 1040 ------- 2 2.0 3.1 46 90
+ 0.750976 1 3 tcp 1040 ------- 2 2.0 3.1 46 90
- 0.750976 1 3 tcp 1040 ------- 2 2.0 3.1 46 90
r 0.752769 2 1 tcp 1040 ------- 2 2.0 3.1 47 91
+ 0.752769 1 3 tcp 1040 ------- 2 2.0 3.1 47 91
r 0.752944 1 3 tcp 1040 ------- 2 2.0 3.1 44 86
+ 0.752944 3 1 ack 40 ------- 2 3.1 2.0 44 94
- 0.752944 3 1 ack 40 ------- 2 3.1 2.0 44 94
- 0.75375 1 3 tcp 1040 ------- 2 2.0 3.1 47 91
r 0.755641 1 2 ack 40 ------- 2 3.1 2.0 43 89
r 0.755717 1 3 tcp 1040 ------- 2 2.0 3.1 45 88
+ 0.755717 3 1 ack 40 ------- 2 3.1 2.0 45 95
- 0.755717 3 1 ack 40 ------- 2 3.1 2.0 45 95
r 0.755806 2 1 tcp 1040 ------- 2 2.0 3.1 48 92
+ 0.755806 1 3 tcp 1040 ------- 2 2.0 3.1 48 92
+ 0.7565 2 1 tcp 1040 ------- 2 2.0 3.1 50 96
- 0.7565 2 1 tcp 1040 ------- 2 2.0 3.1 50 96
- 0.756523 1 3 tcp 1040 ------- 2 2.0 3.1 48 92
r 0.75747 2 1 tcp 1040 ------- 2 2.0 3.1 49 93
+ 0.75747 1 3 tcp 1040 ------- 2 2.0 3.1 49 93
- 0.759296 1 3 tcp 1040 ------- 2 2.0 3.1 49 93
+ 0.759446 2 1 tcp 1040 ------- 2 2.0 3.1 51 97
- 0.759446 2 1 tcp 1040 ------- 2 2.0 3.1 51 97
r 0.76105 3 1 ack 40 ------- 2 3.1 2.0 44 94
+ 0.76105 1 2 ack 40 ------- 2 3.1 2.0 44 94
- 0.76105 1 2 ack 40 ------- 2 3.1 2.0 44 94
r 0.76175 1 3 tcp 1040 ------- 2 2.0 3.1 46 90
+ 0.76175 3 1 ack 40 ------- 2 3.1 2.0 46 98
- 0.76175 3 1 ack 40 ------- 2 3.1 2.0 46 98
r 0.763164 2 1 tcp 1040 ------- 2 2.0 3.1 50 96
+ 0.763164 1 3 tcp 1040 ------- 2 2.0 3.1 50 96
- 0.763164 1 3 tcp 1040 ------- 2 2.0 3.1 50 96
+ 0.763716 2 1 tcp 1040 ------- 2 2.0 3.1 52 99
- 0.763716 2 1 tcp 1040 ------- 2 2.0 3.1 52 99
r 0.763824 3 1 ack 40 ------- 2 3.1 2.0 45 95
+ 0.763824 1 2 ack 40 ------- 2 3.1 2.0 45 95
- 0.763824 1 2 ack 40 ------- 2 3.1 2.0 45 95
r 0.764523 1 3 tcp 1040 ------- 2 2.0 3.1 47 91
+ 0.764523 3 1 ack 40 ------- 2 3.1 2.0 47 100
- 0.764523 3 1 ack 40 ------- 2 3.1 2.0 47 100
r 0.76611 2 1 tcp 1040 ------- 2 2.0 3.1 51 97
+ 0.76611 1 3 tcp 1040 ------- 2 2.0 3.1 51 97
- 0.76611 1 3 tcp 1040 ------- 2 2.0 3.1 51 97
r 0.766114 1 2 ack 40 ------- 2 3.1 2.0 44 94
r 0.767296 1 3 tcp 1040 ------- 2 2.0 3.1 48 92
+ 0.767296 3 1 ack 40 ------- 2 3.1 2.0 48 101
- 0.767296 3 1 ack 40 ------- 2 3.1 2.0 48 101
r 0.768888 1 2 ack 40 ------- 2 3.1 2.0 45 95
r 0.769856 3 1 ack 40 ------- 2 3.1 2.0 46 98
+ 0.769856 1 2 ack 40 ------- 2 3.1 2.0 46 98
- 0.769856 1 2 ack 40 ------- 2 3.1 2.0 46 98
r 0.77007 1 3 tcp 1040 ------- 2 2.0 3.1 49 93
+ 0.77007 3 1 ack 40 ------- 2 3.1 2.0 49 102
- 0.77007 3 1 ack 40 ------- 2 3.1 2.0 49 102
r 0.77038 2 1 tcp 1040 ------- 2 2.0 3.1 52 99
+ 0.77038 1 3 tcp 1040 ------- 2 2.0 3.1 52 99
- 0.77038 1 3 tcp 1040 ------- 2 2.0 3.1 52 99
r 0.77263 3 1 ack 40 ------- 2 3.1 2.0 47 100
+ 0.77263 1 2 ack 40 ------- 2 3.1 2.0 47 100
- 0.77263 1 2 ack 40 ------- 2 3.1 2.0 47 100
r 0.773938 1 3 tcp 1040 ------- 2 2.0 3.1 50 96
+ 0.773938 3 1 ack 40 ------- 2 3.1 2.0 50 103
- 0.773938 3 1 ack 40 ------- 2 3.1 2.0 50 103
r 0.77492 1 2 ack 40 ------- 2 3.1 2.0 46 98
r 0.775403 3 1 ack 40 ------- 2 3.1 2.0 48 101
+ 0.775403 1 2 ack 40 ------- 2 3.1 2.0 48 101
- 0.775403 1 2 ack 40 ------- 2 3.1 2.0 48 101
r 0.776883 1 3 tcp 1040 ------- 2 2.0 3.1 51 97
+ 0.776883 3 1 ack 40 ------- 2 3.1 2.0 51 104
- 0.776883 3 1 ack 40 ------- 2 3.1 2.0 51 104
r 0.777694 1 2 ack 40 ------- 2 3.1 2.0 47 100
r 0.778176 3 1 ack 40 ------- 2 3.1 2.0 49 102
+ 0.778176 1 2 ack 40 ------- 2 3.1 2.0 49 102
- 0.778176 1 2 ack 40 ------- 2 3.1 2.0 49 102
r 0.780467 1 2 ack 40 ------- 2 3.1 2.0 48 101
r 0.781153 1 3 tcp 1040 ------- 2 2.0 3.1 52 99
+ 0.781153 3 1 ack 40 ------- 2 3.1 2.0 52 105
- 0.781153 3 1 ack 40 ------- 2 3.1 2.0 52 105
+ 0.781673 2 1 tcp 1040 ------- 2 2.0 3.1 53 106
- 0.781673 2 1 tcp 1040 ------- 2 2.0 3.1 53 106
r 0.782044 3 1 ack 40 ------- 2 3.1 2.0 50 103
+ 0.782044 1 2 ack 40 ------- 2 3.1 2.0 50 103
- 0.782044 1 2 ack 40 ------- 2 3.1 2.0 50 103
r 0.78324 1 2 ack 40 ------- 2 3.1 2.0 49 102
r 0.78499 3 1 ack 40 ------- 2 3.1 2.0 51 104
+ 0.78499 1 2 ack 40 ------- 2 3.1 2.0 51 104
- 0.78499 1 2 ack 40 ------- 2 3.1 2.0 51 104
r 0.787108 1 2 ack 40 ------- 2 3.1 2.0 50 103
+ 0.787258 2 1 tcp 1040 ------- 2 2.0 3.1 54 107
- 0.787258 2 1 tcp 1040 ------- 2 2.0 3.1 54 107
r 0.788337 2 1 tcp 1040 ------- 2 2.0 3.1 53 106
+ 0.788337 1 3 tcp 1040 ------- 2 2.0 3.1 53 106
- 0.788337 1 3 tcp 1040 ------- 2 2.0 3.1 53 106
r 0.78926 3 1 ack 40 ------- 2 3.1 2.0 52 105
+ 0.78926 1 2 ack 40 ------- 2 3.1 2.0 52 105
- 0.78926 1 2 ack 40 ------- 2 3.1 2.0 52 105
r 0.790054 1 2 ack 40 ------- 2 3.1 2.0 51 104
r 0.793922 2 1 tcp 1040 ------- 2 2.0 3.1 54 107