V -t * -v 1.0a5 -a 0
A -t * -n 1 -p 0 -o 0x7fffffff -c 30 -a 1
A -t * -h 1 -m 1073741823 -s 0
n -t * -a 0 -s 0 -S UP -v circle -c black -i black
n -t * -a 1 -s 1 -S UP -v circle -c black -i black
n -t * -a 2 -s 2 -S UP -v circle -c black -i black
l -t * -s 0 -d 1 -S UP -r 1000000 -D 0.01 -c black
l -t * -s 1 -d 2 -S UP -r 200000 -D 0.014999999999999999 -c black
+ -t 0.5 -s 0 -d 1 -p cbr -e 210 -c 0 -i 0 -a 0 -x {0.0 2.0 0 ------- null}
- -t 0.5 -s 0 -d 1 -p cbr -e 210 -c 0 -i 0 -a 0 -x {0.0 2.0 0 ------- null}
h -t 0.5 -s 0 -d 1 -p cbr -e 210 -c 0 -i 0 -a 0 -x {0.0 2.0 -1 ------- null}
+ -t 0.505 -s 0 -d 1 -p cbr -e 210 -c 0 -i 1 -a 0 -x {0.0 2.0 1 ------- null}
- -t 0.505 -s 0 -d 1 -p cbr -e 210 -c 0 -i 1 -a 0 -x {0.0 2.0 1 ------- null}
h -t 0.505 -s 0 -d 1 -p cbr -e 210 -c 0 -i 1 -a 0 -x {0.0 2.0 -1 ------- null}
+ -t 0.51 -s 0 -d 1 -p cbr -e 210 -c 0 -i 2 -a 0 -x {0.0 2.0 2 ------- null}
- -t 0.51 -s 0 -d 1 -p cbr -e 210 -c 0 -i 2 -a 0 -x {0.0 2.0 2 ------- null}
h -t 0.51 -s 0 -d 1 -p cbr -e 210 -c 0 -i 2 -a 0 -x {0.0 2.0 -1 ------- null}
r -t 0.51168 -s 0 -d 1 -p cbr -e 210 -c 0 -i 0 -a 0 -x {0.0 2.0 0 ------- null}
+ -t 0.51168 -s 1 -d 2 -p cbr -e 210 -c 0 -i 0 -a 0 -x {0.0 2.0 0 ------- null}
- -t 0.51168 -s 1 -d 2 -p cbr -e 210 -c 0 -i 0 -a 0 -x {0.0 2.0 0 ------- null}
h -t 0.51168 -s 1 -d 2 -p cbr -e 210 -c 0 -i 0 -a 0 -x {0.0 2.0 -1 ------- null}
+ -t 0.515 -s 0 -d 1 -p cbr -e 210 -c 0 -i 3 -a 0 -x {0.0 2.0 3 ------- null}
- -t 0.515 -s 0 -d 1 -p cbr -e 210 -c 0 -i 3 -a 0 -x {0.0 2.0 3 ------- null}
h -t 0.515 -s 0 -d 1 -p cbr -e 210 -c 0 -i 3 -a 0 -x {0.0 2.0 -1 ------- null}
r -t 0.51668 -s 0 -d 1 -p cbr -e 210 -c 0 -i 1 -a 0 -x {0.0 2.0 1 ------- null}
+ -t 0.51668 -s 1 -d 2 -p cbr -e 210 -c 0 -i 1 -a 0 -x {0.0 2.0 1 ------- null}
+ -t 0.52 -s 0 -d 1 -p cbr -e 210 -c 0 -i 4 -a 0 -x {0.0 2.0 4 ------- null}
- -t 0.52 -s 0 -d 1 -p cbr -e 210 -c 0 -i 4 -a 0 -x {0.0 2.0 4 ------- null}
h -t 0.52 -s 0 -d 1 -p cbr -e 210 -c 0 -i 4 -a 0 -x {0.0 2.0 -1 ------- null}
- -t 0.52008 -s 1 -d 2 -p cbr -e 210 -c 0 -i 1 -a 0 -x {0.0 2.0 1 ------- null}
h -t 0.52008 -s 1 -d 2 -p cbr -e 210 -c 0 -i 1 -a 0 -x {0.0 2.0 -1 ------- null}
r -t 0.52168 -s 0 -d 1 -p cbr -e 210 -c 0 -i 2 -a 0 -x {0.0 2.0 2 ------- null}
+ -t 0.52168 -s 1 -d 2 -p cbr -e 210 -c 0 -i 2 -a 0 -x {0.0 2.0 2 ------- null}
+ -t 0.525 -s 0 -d 1 -p cbr -e 210 -c 0 -i 5 -a 0 -x {0.0 2.0 5 ------- null}
- -t 0.525 -s 0 -d 1 -p cbr -e 210 -c 0 -i 5 -a 0 -x {0.0 2.0 5 ------- null}
h -t 0.525 -s 0 -d 1 -p cbr -e 210 -c 0 -i 5 -a 0 -x {0.0 2.0 -1 ------- null}
r -t 0.52668 -s 0 -d 1 -p cbr -e 210 -c 0 -i 3 -a 0 -x {0.0 2.0 3 ------- null}
+ -t 0.52668 -s 1 -d 2 -p cbr -e 210 -c 0 -i 3 -a 0 -x {0.0 2.0 3 ------- null}
- -t 0.52848 -s 1 -d 2 -p cbr -e 210 -c 0 -i 2 -a 0 -x {0.0 2.0 2 ------- null}
h -t 0.52848 -s 1 -d 2 -p cbr -e 210 -c 0 -i 2 -a 0 -x {0.0 2.0 -1 ------- null}
+ -t 0.53 -s 0 -d 1 -p cbr -e 210 -c 0 -i 6 -a 0 -x {0.0 2.0 6 ------- null}
- -t 0.53 -s 0 -d 1 -p cbr -e 210 -c 0 -i 6 -a 0 -x {0.0 2.0 6 ------- null}
h -t 0.53 -s 0 -d 1 -p cbr -e 210 -c 0 -i 6 -a 0 -x {0.0 2.0 -1 ------- null}
r -t 0.53168 -s 0 -d 1 -p cbr -e 210 -c 0 -i 4 -a 0 -x {0.0 2.0 4 ------- null}
+ -t 0.53168 -s 1 -d 2 -p cbr -e 210 -c 0 -i 4 -a 0 -x {0.0 2.0 4 ------- null}
+ -t 0.535 -s 0 -d 1 -p cbr -e 210 -c 0 -i 7 -a 0 -x {0.0 2.0 7 ------- null}
- -t 0.535 -s 0 -d 1 -p cbr -e 210 -c 0 -i 7 -a 0 -x {0.0 2.0 7 ------- null}
h -t 0.535 -s 0 -d 1 -p cbr -e 210 -c 0 -i 7 -a 0 -x {0.0 2.0 -1 ------- null}
r -t 0.53508 -s 1 -d 2 -p cbr -e 210 -c 0 -i 0 -a 0 -x {0.0 2.0 0 ------- null}
r -t 0.53668 -s 0 -d 1 -p cbr -e 210 -c 0 -i 5 -a 0 -x {0.0 2.0 5 ------- null}
+ -t 0.53668 -s 1 -d 2 -p cbr -e 210 -c 0 -i 5 -a 0 -x {0.0 2.0 5 ------- null}
- -t 0.53688 -s 1 -d 2 -p cbr -e 210 -c 0 -i 3 -a 0 -x {0.0 2.0 3 ------- null}
h -t 0.53688 -s 1 -d 2 -p cbr -e 210 -c 0 -i 3 -a 0 -x {0.0 2.0 -1 ------- null}
+ -t 0.54 -s 0 -d 1 -p cbr -e 210 -c 0 -i 8 -a 0 -x {0.0 2.0 8 ------- null}
- -t 0.54 -s 0 -d 1 -p cbr -e 210 -c 0 -i 8 -a 0 -x {0.0 2.0 8 ------- null}
h -t 0.54 -s 0 -d 1 -p cbr -e 210 -c 0 -i 8 -a 0 -x {0.0 2.0 -1 ------- null}
r -t 0.54168 -s 0 -d 1 -p cbr -e 210 -c 0 -i 6 -a 0 -x {0.0 2.0 6 ------- null}
+ -t 0.54168 -s 1 -d 2 -p cbr -e 210 -c 0 -i 6 -a 0 -x {0.0 2.0 6 ------- null}
r -t 0.54348 -s 1 -d 2 -p cbr -e 210 -c 0 -i 1 -a 0 -x {0.0 2.0 1 ------- null}
+ -t 0.545 -s 0 -d 1 -p cbr -e 210 -c 0 -i 9 -a 0 -x {0.0 2.0 9 ------- null}
- -t 0.545 -s 0 -d 1 -p cbr -e 210 -c 0 -i 9 -a 0 -x {0.0 2.0 9 ------- null}
h -t 0.545 -s 0 -d 1 -p cbr -e 210 -c 0 -i 9 -a 0 -x {0.0 2.0 -1 ------- null}
- -t 0.54528 -s 1 -d 2 -p cbr -e 210 -c 0 -i 4 -a 0 -x {0.0 2.0 4 ------- null}
h -t 0.54528 -s 1 -d 2 -p cbr -e 210 -c 0 -i 4 -a 0 -x {0.0 2.0 -1 ------- null}
r -t 0.54668 -s 0 -d 1 -p cbr -e 210 -c 0 -i 7 -a 0 -x {0.0 2.0 7 ------- null}
+ -t 0.54668 -s 1 -d 2 -p cbr -e 210 -c 0 -i 7 -a 0 -x {0.0 2.0 7 ------- null}
+ -t 0.55 -s 0 -d 1 -p cbr -e 210 -c 0 -i 10 -a 0 -x {0.0 2.0 10 ------- null}
- -t 0.55 -s 0 -d 1 -p cbr -e 210 -c 0 -i 10 -a 0 -x {0.0 2.0 10 ------- null}
h -t 0.55 -s 0 -d 1 -p cbr -e 210 -c 0 -i 10 -a 0 -x {0.0 2.0 -1 ------- null}
r -t 0.55168 -s 0 -d 1 -p cbr -e 210 -c 0 -i 8 -a 0 -x {0.0 2.0 8 ------- null}
+ -t 0.55168 -s 1 -d 2 -p cbr -e 210 -c 0 -i 8 -a 0 -x {0.0 2.0 8 ------- null}
r -t 0.55188 -s 1 -d 2 -p cbr -e 210 -c 0 -i 2 -a 0 -x {0.0 2.0 2 ------- null}
- -t 0.55368 -s 1 -d 2 -p cbr -e 210 -c 0 -i 5 -a 0 -x {0.0 2.0 5 ------- null}
h -t 0.55368 -s 1 -d 2 -p cbr -e 210 -c 0 -i 5 -a 0 -x {0.0 2.0 -1 ------- null}
+ -t 0.555 -s 0 -d 1 -p cbr -e 210 -c 0 -i 11 -a 0 -x {0.0 2.0 11 ------- null}
- -t 0.555 -s 0 -d 1 -p cbr -e 210 -c 0 -i 11 -a 0 -x {0.0 2.0 11 ------- null}
h -t 0.555 -s 0 -d 1 -p cbr -e 210 -c 0 -i 11 -a 0 -x {0.0 2.0 -1 ------- null}
r -t 0.55668 -s 0 -d 1 -p cbr -e 210 -c 0 -i 9 -a 0 -x {0.0 2.0 9 ------- null}
+ -t 0.55668 -s 1 -d 2 -p cbr -e 210 -c 0 -i 9 -a 0 -x {0.0 2.0 9 ------- null}
+ -t 0.56 -s 0 -d 1 -p cbr -e 210 -c 0 -i 12 -a 0 -x {0.0 2.0 12 ------- null}
- -t 0.56 -s 0 -d 1 -p cbr -e 210 -c 0 -i 12 -a 0 -x {0.0 2.0 12 ------- null}
h -t 0.56 -s 0 -d 1 -p cbr -e 210 -c 0 -i 12 -a 0 -x {0.0 2.0 -1 ------- null}
r -t 0.56028 -s 1 -d 2 -p cbr -e 210 -c 0 -i 3 -a 0 -x {0.0 2.0 3 ------- null}
r -t 0.56168 -s 0 -d 1 -p cbr -e 210 -c 0 -i 10 -a 0 -x {0.0 2.0 10 ------- null}
+ -t 0.56168 -s 1 -d 2 -p cbr -e 210 -c 0 -i 10 -a 0 -x {0.0 2.0 10 ------- null}
- -t 0.56208 -s 1 -d 2 -p cbr -e 210 -c 0 -i 6 -a 0 -x {0.0 2.0 6 ------- null}
h -t 0.56208 -s 1 -d 2 -p cbr -e 210 -c 0 -i 6 -a 0 -x {0.0 2.0 -1 ------- null}
+ -t 0.565 -s 0 -d 1 -p cbr -e 210 -c 0 -i 13 -a 0 -x {0.0 2.0 13 ------- null}
- -t 0.565 -s 0 -d 1 -p cbr -e 210 -c 0 -i 13 -a 0 -x {0.0 2.0 13 ------- null}
h -t 0.565 -s 0 -d 1 -p cbr -e 210 -c 0 -i 13 -a 0 -x {0.0 2.0 -1 ------- null}
r -t 0.56668 -s 0 -d 1 -p cbr -e 210 -c 0 -i 11 -a 0 -x {0.0 2.0 11 ------- null}
+ -t 0.56668 -s 1 -d 2 -p cbr -e 210 -c 0 -i 11 -a 0 -x {0.0 2.0 11 ------- null}
r -t 0.56868 -s 1 -d 2 -p cbr -e 210 -c 0 -i 4 -a 0 -x {0.0 2.0 4 ------- null}
+ -t 0.57 -s 0 -d 1 -p cbr -e 210 -c 0 -i 14 -a 0 -x {0.0 2.0 14 ------- null}
- -t 0.57 -s 0 -d 1 -p cbr -e 210 -c 0 -i 14 -a 0 -x {0.0 2.0 14 ------- null}
h -t 0.57 -s 0 -d 1 -p cbr -e 210 -c 0 -i 14 -a 0 -x {0.0 2.0 -1 ------- null}
- -t 0.57048 -s 1 -d 2 -p cbr -e 210 -c 0 -i 7 -a 0 -x {0.0 2.0 7 ------- null}
h -t 0.57048 -s 1 -d 2 -p cbr -e 210 -c 0 -i 7 -a 0 -x {0.0 2.0 -1 ------- null}
r -t 0.57168 -s 0 -d 1 -p cbr -e 210 -c 0 -i 12 -a 0 -x {0.0 2.0 12 ------- null}
+ -t 0.57168 -s 1 -d 2 -p cbr -e 210 -c 0 -i 12 -a 0 -x {0.0 2.0 12 ------- null}
+ -t 0.575 -s 0 -d 1 -p cbr -e 210 -c 0 -i 15 -a 0 -x {0.0 2.0 15 ------- null}
- -t 0.575 -s 0 -d 1 -p cbr -e 210 -c 0 -i 15 -a 0 -x {0.0 2.0 15 ------- null}
h -t 0.575 -s 0 -d 1 -p cbr -e 210 -c 0 -i 15 -a 0 -x {0.0 2.0 -1 ------- null}
r -t 0.57668 -s 0 -d 1 -p cbr -e 210 -c 0 -i 13 -a 0 -x {0.0 2.0 13 ------- null}
+ -t 0.57668 -s 1 -d 2 -p cbr -e 210 -c 0 -i 13 -a 0 -x {0.0 2.0 13 ------- null}
r -t 0.57708 -s 1 -d 2 -p cbr -e 210 -c 0 -i 5 -a 0 -x {0.0 2.0 5 ------- null}
- -t 0.57888 -s 1 -d 2 -p cbr -e 210 -c 0 -i 8 -a 0 -x {0.0 2.0 8 ------- null}
h -t 0.57888 -s 1 -d 2 -p cbr -e 210 -c 0 -i 8 -a 0 -x {0.0 2.0 -1 ------- null}
+ -t 0.58 -s 0 -d 1 -p cbr -e 210 -c 0 -i 16 -a 0 -x {0.0 2.0 16 ------- null}
- -t 0.58 -s 0 -d 1 -p cbr -e 210 -c 0 -i 16 -a 0 -x {0.0 2.0 16 ------- null}
h -t 0.58 -s 0 -d 1 -p cbr -e 210 -c 0 -i 16 -a 0 -x {0.0 2.0 -1 ------- null}
r -t 0.58168 -s 0 -d 1 -p cbr -e 210 -c 0 -i 14 -a 0 -x {0.0 2.0 14 ------- null}
+ -t 0.58168 -s 1 -d 2 -p cbr -e 210 -c 0 -i 14 -a 0 -x {0.0 2.0 14 ------- null}
+ -t 0.585 -s 0 -d 1 -p cbr -e 210 -c 0 -i 17 -a 0 -x {0.0 2.0 17 ------- null}
- -t 0.585 -s 0 -d 1 -p cbr -e 210 -c 0 -i 17 -a 0 -x {0.0 2.0 17 ------- null}
h -t 0.585 -s 0 -d 1 -p cbr -e 210 -c 0 -i 17 -a 0 -x {0.0 2.0 -1 ------- null}
r -t 0.58548 -s 1 -d 2 -p cbr -e 210 -c 0 -i 6 -a 0 -x {0.0 2.0 6 ------- null}
r -t 0.58668 -s 0 -d 1 -p cbr -e 210 -c 0 -i 15 -a 0 -x {0.0 2.0 15 ------- null}
+ -t 0.58668 -s 1 -d 2 -p cbr -e 210 -c 0 -i 15 -a 0 -x {0.0 2.0 15 ------- null}
- -t 0.58728 -s 1 -d 2 -p cbr -e 210 -c 0 -i 9 -a 0 -x {0.0 2.0 9 ------- null}
h -t 0.58728 -s 1 -d 2 -p cbr -e 210 -c 0 -i 9 -a 0 -x {0.0 2.0 -1 ------- null}
+ -t 0.59 -s 0 -d 1 -p cbr -e 210 -c 0 -i 18 -a 0 -x {0.0 2.0 18 ------- null}
- -t 0.59 -s 0 -d 1 -p cbr -e 210 -c 0 -i 18 -a 0 -x {0.0 2.0 18 ------- null}
h -t 0.59 -s 0 -d 1 -p cbr -e 210 -c 0 -i 18 -a 0 -x {0.0 2.0 -1 ------- null}
r -t 0.59168 -s 0 -d 1 -p cbr -e 210 -c 0 -i 16 -a 0 -x {0.0 2.0 16 ------- null}
+ -t 0.59168 -s 1 -d 2 -p cbr -e 210 -c 0 -i 16 -a 0 -x {0.0 2.0 16 ------- null}
r -t 0.59388 -s 1 -d 2 -p cbr -e 210 -c 0 -i 7 -a 0 -x {0.0 2.0 7 ------- null}
+ -t 0.595 -s 0 -d 1 -p cbr -e 210 -c 0 -i 19 -a 0 -x {0.0 2.0 19 ------- null}
- -t 0.595 -s 0 -d 1 -p cbr -e 210 -c 0 -i 19 -a 0 -x {0.0 2.0 19 ------- null}
h -t 0.595 -s 0 -d 1 -p cbr -e 210 -c 0 -i 19 -a 0 -x {0.0 2.0 -1 ------- null}
- -t 0.59568 -s 1 -d 2 -p cbr -e 210 -c 0 -i 10 -a 0 -x {0.0 2.0 10 ------- null}
h -t 0.59568 -s 1 -d 2 -p cbr -e 210 -c 0 -i 10 -a 0 -x {0.0 2.0 -1 ------- null}
r -t 0.59668 -s 0 -d 1 -p cbr -e 210 -c 0 -i 17 -a 0 -x {0.0 2.0 17 ------- null}
+ -t 0.59668 -s 1 -d 2 -p cbr -e 210 -c 0 -i 17 -a 0 -x {0.0 2.0 17 ------- null}
+ -t 0.6 -s 0 -d 1 -p cbr -e 210 -c 0 -i 20 -a 0 -x {0.0 2.0 20 ------- null}
- -t 0.6 -s 0 -d 1 -p cbr -e 210 -c 0 -i 20 -a 0 -x {0.0 2.0 20 ------- null}
h -t 0.6 -s 0 -d 1 -p cbr -e 210 -c 0 -i 20 -a 0 -x {0.0 2.0 -1 ------- null}
r -t 0.60168 -s 0 -d 1 -p cbr -e 210 -c 0 -i 18 -a 0 -x {0.0 2.0 18 ------- null}
+ -t 0.60168 -s 1 -d 2 -p cbr -e 210 -c 0 -i 18 -a 0 -x {0.0 2.0 18 ------- null}
r -t 0.60228 -s 1 -d 2 -p cbr -e 210 -c 0 -i 8 -a 0 -x {0.0 2.0 8 ------- null}
- -t 0.60408 -s 1 -d 2 -p cbr -e 210 -c 0 -i 11 -a 0 -x {0.0 2.0 11 ------- null}
h -t 0.60408 -s 1 -d 2 -p cbr -e 210 -c 0 -i 11 -a 0 -x {0.0 2.0 -1 ------- null}
+ -t 0.605 -s 0 -d 1 -p cbr -e 210 -c 0 -i 21 -a 0 -x {0.0 2.0 21 ------- null}
- -t 0.605 -s 0 -d 1 -p cbr -e 210 -c 0 -i 21 -a 0 -x {0.0 2.0 21 ------- null}
h -t 0.605 -s 0 -d 1 -p cbr -e 210 -c 0 -i 21 -a 0 -x {0.0 2.0 -1 ------- null}
r -t 0.60668 -s 0 -d 1 -p cbr -e 210 -c 0 -i 19 -a 0 -x {0.0 2.0 19 ------- null}
+ -t 0.60668 -s 1 -d 2 -p cbr -e 210 -c 0 -i 19 -a 0 -x {0.0 2.0 19 ------- null}
+ -t 0.61 -s 0 -d 1 -p cbr -e 210 -c 0 -i 22 -a 0 -x {0.0 2.0 22 ------- null}
- -t 0.61 -s 0 -d 1 -p cbr -e 210 -c 0 -i 22 -a 0 -x {0.0 2.0 22 ------- null}
h -t 0.61 -s 0 -d 1 -p cbr -e 210 -c 0 -i 22 -a 0 -x {0.0 2.0 -1 ------- null}
r -t 0.61068 -s 1 -d 2 -p cbr -e 210 -c 0 -i 9 -a 0 -x {0.0 2.0 9 ------- null}
r -t 0.61168 -s 0 -d 1 -p cbr -e 210 -c 0 -i 20 -a 0 -x {0.0 2.0 20 ------- null}
+ -t 0.61168 -s 1 -d 2 -p cbr -e 210 -c 0 -i 20 -a 0 -x {0.0 2.0 20 ------- null}
- -t 0.61248 -s 1 -d 2 -p cbr -e 210 -c 0 -i 12 -a 0 -x {0.0 2.0 12 ------- null}
h -t 0.61248 -s 1 -d 2 -p cbr -e 210 -c 0 -i 12 -a 0 -x {0.0 2.0 -1 ------- null}
+ -t 0.615 -s 0 -d 1 -p cbr -e 210 -c 0 -i 23 -a 0 -x {0.0 2.0 23 ------- null}
- -t 0.615 -s 0 -d 1 -p cbr -e 210 -c 0 -i 23 -a 0 -x {0.0 2.0 23 ------- null}
h -t 0.615 -s 0 -d 1 -p cbr -e 210 -c 0 -i 23 -a 0 -x {0.0 2.0 -1 ------- null}
r -t 0.61668 -s 0 -d 1 -p cbr -e 210 -c 0 -i 21 -a 0 -x {0.0 2.0 21 ------- null}
+ -t 0.61668 -s 1 -d 2 -p cbr -e 210 -c 0 -i 21 -a 0 -x {0.0 2.0 21 ------- null}
r -t 0.61908 -s 1 -d 2 -p cbr -e 210 -c 0 -i 10 -a 0 -x {0.0 2.0 10 ------- null}
+ -t 0.62 -s 0 -d 1 -p cbr -e 210 -c 0 -i 24 -a 0 -x {0.0 2.0 24 ------- null}
- -t 0.62 -s 0 -d 1 -p cbr -e 210 -c 0 -i 24 -a 0 -x {0.0 2.0 24 ------- null}
h -t 0.62 -s 0 -d 1 -p cbr -e 210 -c 0 -i 24 -a 0 -x {0.0 2.0 -1 ------- null}
- -t 0.62088 -s 1 -d 2 -p cbr -e 210 -c 0 -i 13 -a 0 -x {0.0 2.0 13 ------- null}
h -t 0.62088 -s 1 -d 2 -p cbr -e 210 -c 0 -i 13 -a 0 -x {0.0 2.0 -1 ------- null}
r -t 0.62168 -s 0 -d 1 -p cbr -e 210 -c 0 -i 22 -a 0 -x {0.0 2.0 22 ------- null}
+ -t 0.62168 -s 1 -d 2 -p cbr -e 210 -c 0 -i 22 -a 0 -x {0.0 2.0 22 ------- null}
+ -t 0.625 -s 0 -d 1 -p cbr -e 210 -c 0 -i 25 -a 0 -x {0.0 2.0 25 ------- null}
- -t 0.625 -s 0 -d 1 -p cbr -e 210 -c 0 -i 25 -a 0 -x {0.0 2.0 25 ------- null}
h -t 0.625 -s 0 -d 1 -p cbr -e 210 -c 0 -i 25 -a 0 -x {0.0 2.0 -1 ------- null}
r -t 0.62668 -s 0 -d 1 -p cbr -e 210 -c 0 -i 23 -a 0 -x {0.0 2.0 23 ------- null}
+ -t 0.62668 -s 1 -d 2 -p cbr -e 210 -c 0 -i 23 -a 0 -x {0.0 2.0 23 ------- null}
r -t 0.62748 -s 1 -d 2 -p cbr -e 210 -c 0 -i 11 -a 0 -x {0.0 2.0 11 ------- null}
- -t 0.62928 -s 1 -d 2 -p cbr -e 210 -c 0 -i 14 -a 0 -x {0.0 2.0 14 ------- null}
h -t 0.62928 -s 1 -d 2 -p cbr -e 210 -c 0 -i 14 -a 0 -x {0.0 2.0 -1 ------- null}
+ -t 0.63 -s 0 -d 1 -p cbr -e 210 -c 0 -i 26 -a 0 -x {0.0 2.0 26 ------- null}
- -t 0.63 -s 0 -d 1 -p cbr -e 210 -c 0 -i 26 -a 0 -x {0.0 2.0 26 ------- null}
h -t 0.63 -s 0 -d 1 -p cbr -e 210 -c 0 -i 26 -a 0 -x {0.0 2.0 -1 ------- null}
r -t 0.63168 -s 0 -d 1 -p cbr -e 210 -c 0 -i 24 -a 0 -x {0.0 2.0 24 ------- null}
+ -t 0.63168 -s 1 -d 2 -p cbr -e 210 -c 0 -i 24 -a 0 -x {0.0 2.0 24 ------- null}
+ -t 0.635 -s 0 -d 1 -p cbr -e 210 -c 0 -i 27 -a 0 -x {0.0 2.0 27 ------- null}
- -t 0.635 -s 0 -d 1 -p cbr -e 210 -c 0 -i 27 -a 0 -x {0.0 2.0 27 ------- null}
h -t 0.635 -s 0 -d 1 -p cbr -e 210 -c 0 -i 27 -a 0 -x {0.0 2.0 -1 ------- null}
r -t 0.63588 -s 1 -d 2 -p cbr -e 210 -c 0 -i 12 -a 0 -x {0.0 2.0 12 ------- null}
r -t 0.63668 -s 0 -d 1 -p cbr -e 210 -c 0 -i 25 -a 0 -x {0.0 2.0 25 ------- null}
+ -t 0.63668 -s 1 -d 2 -p cbr -e 210 -c 0 -i 25 -a 0 -x {0.0 2.0 25 ------- null}
- -t 0.637679999999999 -s 1 -d 2 -p cbr -e 210 -c 0 -i 15 -a 0 -x {0.0 2.0 15 ------- null}
h -t 0.637679999999999 -s 1 -d 2 -p cbr -e 210 -c 0 -i 15 -a 0 -x {0.0 2.0 -1 ------- null}
+ -t 0.64 -s 0 -d 1 -p cbr -e 210 -c 0 -i 28 -a 0 -x {0.0 2.0 28 ------- null}
- -t 0.64 -s 0 -d 1 -p cbr -e 210 -c 0 -i 28 -a 0 -x {0.0 2.0 28 ------- null}
h -t 0.64 -s 0 -d 1 -p cbr -e 210 -c 0 -i 28 -a 0 -x {0.0 2.0 -1 ------- null}
r -t 0.64168 -s 0 -d 1 -p cbr -e 210 -c 0 -i 26 -a 0 -x {0.0 2.0 26 ------- null}
+ -t 0.64168 -s 1 -d 2 -p cbr -e 210 -c 0 -i 26 -a 0 -x {0.0 2.0 26 ------- null}
r -t 0.64428 -s 1 -d 2 -p cbr -e 210 -c 0 -i 13 -a 0 -x {0.0 2.0 13 ------- null}
+ -t 0.645 -s 0 -d 1 -p cbr -e 210 -c 0 -i 29 -a 0 -x {0.0 2.0 29 ------- null}
- -t 0.645 -s 0 -d 1 -p cbr -e 210 -c 0 -i 29 -a 0 -x {0.0 2.0 29 ------- null}
h -t 0.645 -s 0 -d 1 -p cbr -e 210 -c 0 -i 29 -a 0 -x {0.0 2.0 -1 ------- null}
- -t 0.646079999999999 -s 1 -d 2 -p cbr -e 210 -c 0 -i 16 -a 0 -x {0.0 2.0 16 ------- null}
h -t 0.646079999999999 -s 1 -d 2 -p cbr -e 210 -c 0 -i 16 -a 0 -x {0.0 2.0 -1 ------- null}
r -t 0.64668 -s 0 -d 1 -p cbr -e 210 -c 0 -i 27 -a 0 -x {0.0 2.0 27 ------- null}
+ -t 0.64668 -s 1 -d 2 -p cbr -e 210 -c 0 -i 27 -a 0 -x {0.0 2.0 27 ------- null}
+ -t 0.65 -s 0 -d 1 -p cbr -e 210 -c 0 -i 30 -a 0 -x {0.0 2.0 30 ------- null}
- -t 0.65 -s 0 -d 1 -p cbr -e 210 -c 0 -i 30 -a 0 -x {0.0 2.0 30 ------- null}
h -t 0.65 -s 0 -d 1 -p cbr -e 210 -c 0 -i 30 -a 0 -x {0.0 2.0 -1 ------- null}
r -t 0.65168 -s 0 -d 1 -p cbr -e 210 -c 0 -i 28 -a 0 -x {0.0 2.0 28 ------- null}
+ -t 0.65168 -s 1 -d 2 -p cbr -e 210 -c 0 -i 28 -a 0 -x {0.0 2.0 28 ------- null}
r -t 0.652679999999999 -s 1 -d 2 -p cbr -e 210 -c 0 -i 14 -a 0 -x {0.0 2.0 14 ------- null}
- -t 0.654479999999999 -s 1 -d 2 -p cbr -e 210 -c 0 -i 17 -a 0 -x {0.0 2.0 17 ------- null}
h -t 0.654479999999999 -s 1 -d 2 -p cbr -e 210 -c 0 -i 17 -a 0 -x {0.0 2.0 -1 ------- null}
+ -t 0.655 -s 0 -d 1 -p cbr -e 210 -c 0 -i 31 -a 0 -x {0.0 2.0 31 ------- null}
- -t 0.655 -s 0 -d 1 -p cbr -e 210 -c 0 -i 31 -a 0 -x {0.0 2.0 31 ------- null}
h -t 0.655 -s 0 -d 1 -p cbr -e 210 -c 0 -i 31 -a 0 -x {0.0 2.0 -1 ------- null}
r -t 0.65668 -s 0 -d 1 -p cbr -e 210 -c 0 -i 29 -a 0 -x {0.0 2.0 29 ------- null}
+ -t 0.65668 -s 1 -d 2 -p cbr -e 210 -c 0 -i 29 -a 0 -x {0.0 2.0 29 ------- null}
+ -t 0.66 -s 0 -d 1 -p cbr -e 210 -c 0 -i 32 -a 0 -x {0.0 2.0 32 ------- null}
- -t 0.66 -s 0 -d 1 -p cbr -e 210 -c 0 -i 32 -a 0 -x {0.0 2.0 32 ------- null}
h -t 0.66 -s 0 -d 1 -p cbr -e 210 -c 0 -i 32 -a 0 -x {0.0 2.0 -1 ------- null}
r -t 0.661079999999999 -s 1 -d 2 -p cbr -e 210 -c 0 -i 15 -a 0 -x {0.0 2.0 15 ------- null}
r -t 0.66168 -s 0 -d 1 -p cbr -e 210 -c 0 -i 30 -a 0 -x {0.0 2.0 30 ------- null}
+ -t 0.66168 -s 1 -d 2 -p cbr -e 210 -c 0 -i 30 -a 0 -x {0.0 2.0 30 ------- null}
- -t 0.662879999999999 -s 1 -d 2 -p cbr -e 210 -c 0 -i 18 -a 0 -x {0.0 2.0 18 ------- null}
h -t 0.662879999999999 -s 1 -d 2 -p cbr -e 210 -c 0 -i 18 -a 0 -x {0.0 2.0 -1 ------- null}
+ -t 0.665 -s 0 -d 1 -p cbr -e 210 -c 0 -i 33 -a 0 -x {0.0 2.0 33 ------- null}
- -t 0.665 -s 0 -d 1 -p cbr -e 210 -c 0 -i 33 -a 0 -x {0.0 2.0 33 ------- null}
h -t 0.665 -s 0 -d 1 -p cbr -e 210 -c 0 -i 33 -a 0 -x {0.0 2.0 -1 ------- null}
r -t 0.66668 -s 0 -d 1 -p cbr -e 210 -c 0 -i 31 -a 0 -x {0.0 2.0 31 ------- null}
+ -t 0.66668 -s 1 -d 2 -p cbr -e 210 -c 0 -i 31 -a 0 -x {0.0 2.0 31 ------- null}
r -t 0.669479999999999 -s 1 -d 2 -p cbr -e 210 -c 0 -i 16 -a 0 -x {0.0 2.0 16 ------- null}
+ -t 0.67 -s 0 -d 1 -p cbr -e 210 -c 0 -i 34 -a 0 -x {0.0 2.0 34 ------- null}
- -t 0.67 -s 0 -d 1 -p cbr -e 210 -c 0 -i 34 -a 0 -x {0.0 2.0 34 ------- null}
h -t 0.67 -s 0 -d 1 -p cbr -e 210 -c 0 -i 34 -a 0 -x {0.0 2.0 -1 ------- null}
- -t 0.671279999999999 -s 1 -d 2 -p cbr -e 210 -c 0 -i 19 -a 0 -x {0.0 2.0 19 ------- null}
h -t 0.671279999999999 -s 1 -d 2 -p cbr -e 210 -c 0 -i 19 -a 0 -x {0.0 2.0 -1 ------- null}
r -t 0.67168 -s 0 -d 1 -p cbr -e 210 -c 0 -i 32 -a 0 -x {0.0 2.0 32 ------- null}
+ -t 0.67168 -s 1 -d 2 -p cbr -e 210 -c 0 -i 32 -a 0 -x {0.0 2.0 32 ------- null}
+ -t 0.675 -s 0 -d 1 -p cbr -e 210 -c 0 -i 35 -a 0 -x {0.0 2.0 35 ------- null}
- -t 0.675 -s 0 -d 1 -p cbr -e 210 -c 0 -i 35 -a 0 -x {0.0 2.0 35 ------- null}
h -t 0.675 -s 0 -d 1 -p cbr -e 210 -c 0 -i 35 -a 0 -x {0.0 2.0 -1 ------- null}
r -t 0.67668 -s 0 -d 1 -p cbr -e 210 -c 0 -i 33 -a 0 -x {0.0 2.0 33 ------- null}
+ -t 0.67668 -s 1 -d 2 -p cbr -e 210 -c 0 -i 33 -a 0 -x {0.0 2.0 33 ------- null}
r -t 0.677879999999999 -s 1 -d 2 -p cbr -e 210 -c 0 -i 17 -a 0 -x {0.0 2.0 17 ------- null}
- -t 0.679679999999999 -s 1 -d 2 -p cbr -e 210 -c 0 -i 20 -a 0 -x {0.0 2.0 20 ------- null}
h -t 0.679679999999999 -s 1 -d 2 -p cbr -e 210 -c 0 -i 20 -a 0 -x {0.0 2.0 -1 ------- null}
+ -t 0.68 -s 0 -d 1 -p cbr -e 210 -c 0 -i 36 -a 0 -x {0.0 2.0 36 ------- null}
- -t 0.68 -s 0 -d 1 -p cbr -e 210 -c 0 -i 36 -a 0 -x {0.0 2.0 36 ------- null}
h -t 0.68 -s 0 -d 1 -p cbr -e 210 -c 0 -i 36 -a 0 -x {0.0 2.0 -1 ------- null}
r -t 0.68168 -s 0 -d 1 -p cbr -e 210 -c 0 -i 34 -a 0 -x {0.0 2.0 34 ------- null}
+ -t 0.68168 -s 1 -d 2 -p cbr -e 210 -c 0 -i 34 -a 0 -x {0.0 2.0 34 ------- null}
+ -t 0.685 -s 0 -d 1 -p cbr -e 210 -c 0 -i 37 -a 0 -x {0.0 2.0 37 ------- null}
- -t 0.685 -s 0 -d 1 -p cbr -e 210 -c 0 -i 37 -a 0 -x {0.0 2.0 37 ------- null}
h -t 0.685 -s 0 -d 1 -p cbr -e 210 -c 0 -i 37 -a 0 -x {0.0 2.0 -1 ------- null}
r -t 0.686279999999999 -s 1 -d 2 -p cbr -e 210 -c 0 -i 18 -a 0 -x {0.0 2.0 18 ------- null}
r -t 0.68668 -s 0 -d 1 -p cbr -e 210 -c 0 -i 35 -a 0 -x {0.0 2.0 35 ------- null}
+ -t 0.68668 -s 1 -d 2 -p cbr -e 210 -c 0 -i 35 -a 0 -x {0.0 2.0 35 ------- null}
- -t 0.688079999999999 -s 1 -d 2 -p cbr -e 210 -c 0 -i 21 -a 0 -x {0.0 2.0 21 ------- null}
h -t 0.688079999999999 -s 1 -d 2 -p cbr -e 210 -c 0 -i 21 -a 0 -x {0.0 2.0 -1 ------- null}
+ -t 0.69 -s 0 -d 1 -p cbr -e 210 -c 0 -i 38 -a 0 -x {0.0 2.0 38 ------- null}
- -t 0.69 -s 0 -d 1 -p cbr -e 210 -c 0 -i 38 -a 0 -x {0.0 2.0 38 ------- null}
h -t 0.69 -s 0 -d 1 -p cbr -e 210 -c 0 -i 38 -a 0 -x {0.0 2.0 -1 ------- null}
r -t 0.69168 -s 0 -d 1 -p cbr -e 210 -c 0 -i 36 -a 0 -x {0.0 2.0 36 ------- null}
+ -t 0.69168 -s 1 -d 2 -p cbr -e 210 -c 0 -i 36 -a 0 -x {0.0 2.0 36 ------- null}
r -t 0.694679999999999 -s 1 -d 2 -p cbr -e 210 -c 0 -i 19 -a 0 -x {0.0 2.0 19 ------- null}
+ -t 0.695 -s 0 -d 1 -p cbr -e 210 -c 0 -i 39 -a 0 -x {0.0 2.0 39 ------- null}
- -t 0.695 -s 0 -d 1 -p cbr -e 210 -c 0 -i 39 -a 0 -x {0.0 2.0 39 ------- null}
h -t 0.695 -s 0 -d 1 -p cbr -e 210 -c 0 -i 39 -a 0 -x {0.0 2.0 -1 ------- null}
- -t 0.696479999999999 -s 1 -d 2 -p cbr -e 210 -c 0 -i 22 -a 0 -x {0.0 2.0 22 ------- null}
h -t 0.696479999999999 -s 1 -d 2 -p cbr -e 210 -c 0 -i 22 -a 0 -x {0.0 2.0 -1 ------- null}
r -t 0.69668 -s 0 -d 1 -p cbr -e 210 -c 0 -i 37 -a 0 -x {0.0 2.0 37 ------- null}
+ -t 0.69668 -s 1 -d 2 -p cbr -e 210 -c 0 -i 37 -a 0 -x {0.0 2.0 37 ------- null}
+ -t 0.7 -s 0 -d 1 -p cbr -e 210 -c 0 -i 40 -a 0 -x {0.0 2.0 40 ------- null}
- -t 0.7 -s 0 -d 1 -p cbr -e 210 -c 0 -i 40 -a 0 -x {0.0 2.0 40 ------- null}
h -t 0.7 -s 0 -d 1 -p cbr -e 210 -c 0 -i 40 -a 0 -x {0.0 2.0 -1 ------- null}
r -t 0.70168 -s 0 -d 1 -p cbr -e 210 -c 0 -i 38 -a 0 -x {0.0 2.0 38 ------- null}
+ -t 0.70168 -s 1 -d 2 -p cbr -e 210 -c 0 -i 38 -a 0 -x {0.0 2.0 38 ------- null}
r -t 0.703079999999999 -s 1 -d 2 -p cbr -e 210 -c 0 -i 20 -a 0 -x {0.0 2.0 20 ------- null}
- -t 0.704879999999999 -s 1 -d 2 -p cbr -e 210 -c 0 -i 23 -a 0 -x {0.0 2.0 23 ------- null}
h -t 0.704879999999999 -s 1 -d 2 -p cbr -e 210 -c 0 -i 23 -a 0 -x {0.0 2.0 -1 ------- null}
+ -t 0.705 -s 0 -d 1 -p cbr -e 210 -c 0 -i 41 -a 0 -x {0.0 2.0 41 ------- null}
- -t 0.705 -s 0 -d 1 -p cbr -e 210 -c 0 -i 41 -a 0 -x {0.0 2.0 41 ------- null}
h -t 0.705 -s 0 -d 1 -p cbr -e 210 -c 0 -i 41 -a 0 -x {0.0 2.0 -1 ------- null}
r -t 0.70668 -s 0 -d 1 -p cbr -e 210 -c 0 -i 39 -a 0 -x {0.0 2.0 39 ------- null}
+ -t 0.70668 -s 1 -d 2 -p cbr -e 210 -c 0 -i 39 -a 0 -x {0.0 2.0 39 ------- null}
+ -t 0.71 -s 0 -d 1 -p cbr -e 210 -c 0 -i 42 -a 0 -x {0.0 2.0 42 ------- null}
- -t 0.71 -s 0 -d 1 -p cbr -e 210 -c 0 -i 42 -a 0 -x {0.0 2.0 42 ------- null}
h -t 0.71 -s 0 -d 1 -p cbr -e 210 -c 0 -i 42 -a 0 -x {0.0 2.0 -1 ------- null}
r -t 0.711479999999999 -s 1 -d 2 -p cbr -e 210 -c 0 -i 21 -a 0 -x {0.0 2.0 21 ------- null}
r -t 0.71168 -s 0 -d 1 -p cbr -e 210 -c 0 -i 40 -a 0 -x {0.0 2.0 40 ------- null}
+ -t 0.71168 -s 1 -d 2 -p cbr -e 210 -c 0 -i 40 -a 0 -x {0.0 2.0 40 ------- null}
- -t 0.713279999999999 -s 1 -d 2 -p cbr -e 210 -c 0 -i 24 -a 0 -x {0.0 2.0 24 ------- null}
h -t 0.713279999999999 -s 1 -d 2 -p cbr -e 210 -c 0 -i 24 -a 0 -x {0.0 2.0 -1 ------- null}
+ -t 0.715 -s 0 -d 1 -p cbr -e 210 -c 0 -i 43 -a 0 -x {0.0 2.0 43 ------- null}
- -t 0.715 -s 0 -d 1 -p cbr -e 210 -c 0 -i 43 -a 0 -x {0.0 2.0 43 ------- null}
h -t 0.715 -s 0 -d 1 -p cbr -e 210 -c 0 -i 43 -a 0 -x {0.0 2.0 -1 ------- null}
r -t 0.71668 -s 0 -d 1 -p cbr -e 210 -c 0 -i 41 -a 0 -x {0.0 2.0 41 ------- null}
+ -t 0.71668 -s 1 -d 2 -p cbr -e 210 -c 0 -i 41 -a 0 -x {0.0 2.0 41 ------- null}
r -t 0.719879999999999 -s 1 -d 2 -p cbr -e 210 -c 0 -i 22 -a 0 -x {0.0 2.0 22 ------- null}
+ -t 0.72 -s 0 -d 1 -p cbr -e 210 -c 0 -i 44 -a 0 -x {0.0 2.0 44 ------- null}
- -t 0.72 -s 0 -d 1 -p cbr -e 210 -c 0 -i 44 -a 0 -x {0.0 2.0 44 ------- null}
h -t 0.72 -s 0 -d 1 -p cbr -e 210 -c 0 -i 44 -a 0 -x {0.0 2.0 -1 ------- null}
- -t 0.721679999999999 -s 1 -d 2 -p cbr -e 210 -c 0 -i 25 -a 0 -x {0.0 2.0 25 ------- null}
h -t 0.721679999999999 -s 1 -d 2 -p cbr -e 210 -c 0 -i 25 -a 0 -x {0.0 2.0 -1 ------- null}
r -t 0.72168 -s 0 -d 1 -p cbr -e 210 -c 0 -i 42 -a 0 -x {0.0 2.0 42 ------- null}
+ -t 0.72168 -s 1 -d 2 -p cbr -e 210 -c 0 -i 42 -a 0 -x {0.0 2.0 42 ------- null}
+ -t 0.725 -s 0 -d 1 -p cbr -e 210 -c 0 -i 45 -a 0 -x {0.0 2.0 45 ------- null}
- -t 0.725 -s 0 -d 1 -p cbr -e 210 -c 0 -i 45 -a 0 -x {0.0 2.0 45 ------- null}
h -t 0.725 -s 0 -d 1 -p cbr -e 210 -c 0 -i 45 -a 0 -x {0.0 2.0 -1 ------- null}
r -t 0.72668 -s 0 -d 1 -p cbr -e 210 -c 0 -i 43 -a 0 -x {0.0 2.0 43 ------- null}
+ -t 0.72668 -s 1 -d 2 -p cbr -e 210 -c 0 -i 43 -a 0 -x {0.0 2.0 43 ------- null}
r -t 0.728279999999999 -s 1 -d 2 -p cbr -e 210 -c 0 -i 23 -a 0 -x {0.0 2.0 23 ------- null}
+ -t 0.73 -s 0 -d 1 -p cbr -e 210 -c 0 -i 46 -a 0 -x {0.0 2.0 46 ------- null}
- -t 0.73 -s 0 -d 1 -p cbr -e 210 -c 0 -i 46 -a 0 -x {0.0 2.0 46 ------- null}
h -t 0.73 -s 0 -d 1 -p cbr -e 210 -c 0 -i 46 -a 0 -x {0.0 2.0 -1 ------- null}
- -t 0.730079999999999 -s 1 -d 2 -p cbr -e 210 -c 0 -i 26 -a 0 -x {0.0 2.0 26 ------- null}
h -t 0.730079999999999 -s 1 -d 2 -p cbr -e 210 -c 0 -i 26 -a 0 -x {0.0 2.0 -1 ------- null}
r -t 0.73168 -s 0 -d 1 -p cbr -e 210 -c 0 -i 44 -a 0 -x {0.0 2.0 44 ------- null}
+ -t 0.73168 -s 1 -d 2 -p cbr -e 210 -c 0 -i 44 -a 0 -x {0.0 2.0 44 ------- null}
+ -t 0.735 -s 0 -d 1 -p cbr -e 210 -c 0 -i 47 -a 0 -x {0.0 2.0 47 ------- null}
- -t 0.735 -s 0 -d 1 -p cbr -e 210 -c 0 -i 47 -a 0 -x {0.0 2.0 47 ------- null}
h -t 0.735 -s 0 -d 1 -p cbr -e 210 -c 0 -i 47 -a 0 -x {0.0 2.0 -1 ------- null}
r -t 0.736679999999999 -s 1 -d 2 -p cbr -e 210 -c 0 -i 24 -a 0 -x {0.0 2.0 24 ------- null}
r -t 0.73668 -s 0 -d 1 -p cbr -e 210 -c 0 -i 45 -a 0 -x {0.0 2.0 45 ------- null}
+ -t 0.73668 -s 1 -d 2 -p cbr -e 210 -c 0 -i 45 -a 0 -x {0.0 2.0 45 ------- null}
- -t 0.738479999999999 -s 1 -d 2 -p cbr -e 210 -c 0 -i 27 -a 0 -x {0.0 2.0 27 ------- null}
h -t 0.738479999999999 -s 1 -d 2 -p cbr -e 210 -c 0 -i 27 -a 0 -x {0.0 2.0 -1 ------- null}
+ -t 0.74 -s 0 -d 1 -p cbr -e 210 -c 0 -i 48 -a 0 -x {0.0 2.0 48 ------- null}
- -t 0.74 -s 0 -d 1 -p cbr -e 210 -c 0 -i 48 -a 0 -x {0.0 2.0 48 ------- null}
h -t 0.74 -s 0 -d 1 -p cbr -e 210 -c 0 -i 48 -a 0 -x {0.0 2.0 -1 ------- null}
r -t 0.74168 -s 0 -d 1 -p cbr -e 210 -c 0 -i 46 -a 0 -x {0.0 2.0 46 ------- null}
+ -t 0.74168 -s 1 -d 2 -p cbr -e 210 -c 0 -i 46 -a 0 -x {0.0 2.0 46 ------- null}
+ -t 0.745 -s 0 -d 1 -p cbr -e 210 -c 0 -i 49 -a 0 -x {0.0 2.0 49 ------- null}
- -t 0.745 -s 0 -d 1 -p cbr -e 210 -c 0 -i 49 -a 0 -x {0.0 2.0 49 ------- null}
h -t 0.745 -s 0 -d 1 -p cbr -e 210 -c 0 -i 49 -a 0 -x {0.0 2.0 -1 ------- null}
r -t 0.745079999999999 -s 1 -d 2 -p cbr -e 210 -c 0 -i 25 -a 0 -x {0.0 2.0 25 ------- null}
r -t 0.74668 -s 0 -d 1 -p cbr -e 210 -c 0 -i 47 -a 0 -x {0.0 2.0 47 ------- null}
+ -t 0.74668 -s 1 -d 2 -p cbr -e 210 -c 0 -i 47 -a 0 -x {0.0 2.0 47 ------- null}
- -t 0.746879999999999 -s 1 -d 2 -p cbr -e 210 -c 0 -i 28 -a 0 -x {0.0 2.0 28 ------- null}
h -t 0.746879999999999 -s 1 -d 2 -p cbr -e 210 -c 0 -i 28 -a 0 -x {0.0 2.0 -1 ------- null}
+ -t 0.75 -s 0 -d 1 -p cbr -e 210 -c 0 -i 50 -a 0 -x {0.0 2.0 50 ------- null}
- -t 0.75 -s 0 -d 1 -p cbr -e 210 -c 0 -i 50 -a 0 -x {0.0 2.0 50 ------- null}
h -t 0.75 -s 0 -d 1 -p cbr -e 210 -c 0 -i 50 -a 0 -x {0.0 2.0 -1 ------- null}
r -t 0.75168 -s 0 -d 1 -p cbr -e 210 -c 0 -i 48 -a 0 -x {0.0 2.0 48 ------- null}
+ -t 0.75168 -s 1 -d 2 -p cbr -e 210 -c 0 -i 48 -a 0 -x {0.0 2.0 48 ------- null}
r -t 0.753479999999999 -s 1 -d 2 -p cbr -e 210 -c 0 -i 26 -a 0 -x {0.0 2.0 26 ------- null}
+ -t 0.755 -s 0 -d 1 -p cbr -e 210 -c 0 -i 51 -a 0 -x {0.0 2.0 51 ------- null}
- -t 0.755 -s 0 -d 1 -p cbr -e 210 -c 0 -i 51 -a 0 -x {0.0 2.0 51 ------- null}
h -t 0.755 -s 0 -d 1 -p cbr -e 210 -c 0 -i 51 -a 0 -x {0.0 2.0 -1 ------- null}
- -t 0.755279999999999 -s 1 -d 2 -p cbr -e 210 -c 0 -i 29 -a 0 -x {0.0 2.0 29 ------- null}
h -t 0.755279999999999 -s 1 -d 2 -p cbr -e 210 -c 0 -i 29 -a 0 -x {0.0 2.0 -1 ------- null}
r -t 0.75668 -s 0 -d 1 -p cbr -e 210 -c 0 -i 49 -a 0 -x {0.0 2.0 49 ------- null}
+ -t 0.75668 -s 1 -d 2 -p cbr -e 210 -c 0 -i 49 -a 0 -x {0.0 2.0 49 ------- null}
+ -t 0.76 -s 0 -d 1 -p cbr -e 210 -c 0 -i 52 -a 0 -x {0.0 2.0 52 ------- null}
- -t 0.76 -s 0 -d 1 -p cbr -e 210 -c 0 -i 52 -a 0 -x {0.0 2.0 52 ------- null}
h -t 0.76 -s 0 -d 1 -p cbr -e 210 -c 0 -i 52 -a 0 -x {0.0 2.0 -1 ------- null}
r -t 0.76168 -s 0 -d 1 -p cbr -e 210 -c 0 -i 50 -a 0 -x {0.0 2.0 50 ------- null}
+ -t 0.76168 -s 1 -d 2 -p cbr -e 210 -c 0 -i 50 -a 0 -x {0.0 2.0 50 ------- null}
r -t 0.761879999999999 -s 1 -d 2 -p cbr -e 210 -c 0 -i 27 -a 0 -x {0.0 2.0 27 ------- null}
- -t 0.763679999999999 -s 1 -d 2 -p cbr -e 210 -c 0 -i 30 -a 0 -x {0.0 2.0 30 ------- null}
h -t 0.763679999999999 -s 1 -d 2 -p cbr -e 210 -c 0 -i 30 -a 0 -x {0.0 2.0 -1 ------- null}
+ -t 0.765 -s 0 -d 1 -p cbr -e 210 -c 0 -i 53 -a 0 -x {0.0 2.0 53 ------- null}
- -t 0.765 -s 0 -d 1 -p cbr -e 210 -c 0 -i 53 -a 0 -x {0.0 2.0 53 ------- null}
h -t 0.765 -s 0 -d 1 -p cbr -e 210 -c 0 -i 53 -a 0 -x {0.0 2.0 -1 ------- null}
r -t 0.76668 -s 0 -d 1 -p cbr -e 210 -c 0 -i 51 -a 0 -x {0.0 2.0 51 ------- null}
+ -t 0.76668 -s 1 -d 2 -p cbr -e 210 -c 0 -i 51 -a 0 -x {0.0 2.0 51 ------- null}
+ -t 0.77 -s 0 -d 1 -p cbr -e 210 -c 0 -i 54 -a 0 -x {0.0 2.0 54 ------- null}
- -t 0.77 -s 0 -d 1 -p cbr -e 210 -c 0 -i 54 -a 0 -x {0.0 2.0 54 ------- null}
h -t 0.77 -s 0 -d 1 -p cbr -e 210 -c 0 -i 54 -a 0 -x {0.0 2.0 -1 ------- null}
r -t 0.770279999999999 -s 1 -d 2 -p cbr -e 210 -c 0 -i 28 -a 0 -x {0.0 2.0 28 ------- null}
r -t 0.77168 -s 0 -d 1 -p cbr -e 210 -c 0 -i 52 -a 0 -x {0.0 2.0 52 ------- null}
+ -t 0.77168 -s 1 -d 2 -p cbr -e 210 -c 0 -i 52 -a 0 -x {0.0 2.0 52 ------- null}