V -t * -v 1.0a5 -a 0
A -t * -n 1 -p 0 -o 0x7fffffff -c 30 -a 1
A -t * -h 1 -m 1073741823 -s 0
c -t * -i 1 -n Blue
c -t * -i 2 -n Red
n -t * -a 0 -s 0 -S UP -v circle -c black -i black
n -t * -a 1 -s 1 -S UP -v circle -c black -i black
n -t * -a 2 -s 2 -S UP -v circle -c black -i black
n -t * -a 3 -s 3 -S UP -v circle -c black -i black
l -t * -s 0 -d 2 -S UP -r 1000000 -D 0.01 -c black -o right-down
l -t * -s 1 -d 2 -S UP -r 2000000 -D 0.014999999999999999 -c black -o right-up
l -t * -s 2 -d 3 -S UP -r 3000000 -D 0.02 -c black -o right
+ -t 0.5 -s 1 -d 2 -p cbr -e 210 -c 2 -i 0 -a 2 -x {1.0 3.1 0 ------- null}
- -t 0.5 -s 1 -d 2 -p cbr -e 210 -c 2 -i 0 -a 2 -x {1.0 3.1 0 ------- null}
h -t 0.5 -s 1 -d 2 -p cbr -e 210 -c 2 -i 0 -a 2 -x {1.0 3.1 -1 ------- null}
+ -t 0.505 -s 1 -d 2 -p cbr -e 210 -c 2 -i 1 -a 2 -x {1.0 3.1 1 ------- null}
- -t 0.505 -s 1 -d 2 -p cbr -e 210 -c 2 -i 1 -a 2 -x {1.0 3.1 1 ------- null}
h -t 0.505 -s 1 -d 2 -p cbr -e 210 -c 2 -i 1 -a 2 -x {1.0 3.1 -1 ------- null}
+ -t 0.51 -s 1 -d 2 -p cbr -e 210 -c 2 -i 2 -a 2 -x {1.0 3.1 2 ------- null}
- -t 0.51 -s 1 -d 2 -p cbr -e 210 -c 2 -i 2 -a 2 -x {1.0 3.1 2 ------- null}
h -t 0.51 -s 1 -d 2 -p cbr -e 210 -c 2 -i 2 -a 2 -x {1.0 3.1 -1 ------- null}
+ -t 0.515 -s 1 -d 2 -p cbr -e 210 -c 2 -i 3 -a 2 -x {1.0 3.1 3 ------- null}
- -t 0.515 -s 1 -d 2 -p cbr -e 210 -c 2 -i 3 -a 2 -x {1.0 3.1 3 ------- null}
h -t 0.515 -s 1 -d 2 -p cbr -e 210 -c 2 -i 3 -a 2 -x {1.0 3.1 -1 ------- null}
r -t 0.51584 -s 1 -d 2 -p cbr -e 210 -c 2 -i 0 -a 2 -x {1.0 3.1 0 ------- null}
+ -t 0.51584 -s 2 -d 3 -p cbr -e 210 -c 2 -i 0 -a 2 -x {1.0 3.1 0 ------- null}
- -t 0.51584 -s 2 -d 3 -p cbr -e 210 -c 2 -i 0 -a 2 -x {1.0 3.1 0 ------- null}
h -t 0.51584 -s 2 -d 3 -p cbr -e 210 -c 2 -i 0 -a 2 -x {1.0 3.1 -1 ------- null}
+ -t 0.52 -s 1 -d 2 -p cbr -e 210 -c 2 -i 4 -a 2 -x {1.0 3.1 4 ------- null}
- -t 0.52 -s 1 -d 2 -p cbr -e 210 -c 2 -i 4 -a 2 -x {1.0 3.1 4 ------- null}
h -t 0.52 -s 1 -d 2 -p cbr -e 210 -c 2 -i 4 -a 2 -x {1.0 3.1 -1 ------- null}
r -t 0.52084 -s 1 -d 2 -p cbr -e 210 -c 2 -i 1 -a 2 -x {1.0 3.1 1 ------- null}
+ -t 0.52084 -s 2 -d 3 -p cbr -e 210 -c 2 -i 1 -a 2 -x {1.0 3.1 1 ------- null}
- -t 0.52084 -s 2 -d 3 -p cbr -e 210 -c 2 -i 1 -a 2 -x {1.0 3.1 1 ------- null}
h -t 0.52084 -s 2 -d 3 -p cbr -e 210 -c 2 -i 1 -a 2 -x {1.0 3.1 -1 ------- null}
+ -t 0.525 -s 1 -d 2 -p cbr -e 210 -c 2 -i 5 -a 2 -x {1.0 3.1 5 ------- null}
- -t 0.525 -s 1 -d 2 -p cbr -e 210 -c 2 -i 5 -a 2 -x {1.0 3.1 5 ------- null}
h -t 0.525 -s 1 -d 2 -p cbr -e 210 -c 2 -i 5 -a 2 -x {1.0 3.1 -1 ------- null}
r -t 0.52584 -s 1 -d 2 -p cbr -e 210 -c 2 -i 2 -a 2 -x {1.0 3.1 2 ------- null}
+ -t 0.52584 -s 2 -d 3 -p cbr -e 210 -c 2 -i 2 -a 2 -x {1.0 3.1 2 ------- null}
- -t 0.52584 -s 2 -d 3 -p cbr -e 210 -c 2 -i 2 -a 2 -x {1.0 3.1 2 ------- null}
h -t 0.52584 -s 2 -d 3 -p cbr -e 210 -c 2 -i 2 -a 2 -x {1.0 3.1 -1 ------- null}
+ -t 0.53 -s 1 -d 2 -p cbr -e 210 -c 2 -i 6 -a 2 -x {1.0 3.1 6 ------- null}
- -t 0.53 -s 1 -d 2 -p cbr -e 210 -c 2 -i 6 -a 2 -x {1.0 3.1 6 ------- null}
h -t 0.53 -s 1 -d 2 -p cbr -e 210 -c 2 -i 6 -a 2 -x {1.0 3.1 -1 ------- null}
r -t 0.53084 -s 1 -d 2 -p cbr -e 210 -c 2 -i 3 -a 2 -x {1.0 3.1 3 ------- null}
+ -t 0.53084 -s 2 -d 3 -p cbr -e 210 -c 2 -i 3 -a 2 -x {1.0 3.1 3 ------- null}
- -t 0.53084 -s 2 -d 3 -p cbr -e 210 -c 2 -i 3 -a 2 -x {1.0 3.1 3 ------- null}
h -t 0.53084 -s 2 -d 3 -p cbr -e 210 -c 2 -i 3 -a 2 -x {1.0 3.1 -1 ------- null}
+ -t 0.535 -s 1 -d 2 -p cbr -e 210 -c 2 -i 7 -a 2 -x {1.0 3.1 7 ------- null}
- -t 0.535 -s 1 -d 2 -p cbr -e 210 -c 2 -i 7 -a 2 -x {1.0 3.1 7 ------- null}
h -t 0.535 -s 1 -d 2 -p cbr -e 210 -c 2 -i 7 -a 2 -x {1.0 3.1 -1 ------- null}
r -t 0.53584 -s 1 -d 2 -p cbr -e 210 -c 2 -i 4 -a 2 -x {1.0 3.1 4 ------- null}
+ -t 0.53584 -s 2 -d 3 -p cbr -e 210 -c 2 -i 4 -a 2 -x {1.0 3.1 4 ------- null}
- -t 0.53584 -s 2 -d 3 -p cbr -e 210 -c 2 -i 4 -a 2 -x {1.0 3.1 4 ------- null}
h -t 0.53584 -s 2 -d 3 -p cbr -e 210 -c 2 -i 4 -a 2 -x {1.0 3.1 -1 ------- null}
r -t 0.5364 -s 2 -d 3 -p cbr -e 210 -c 2 -i 0 -a 2 -x {1.0 3.1 0 ------- null}
+ -t 0.54 -s 1 -d 2 -p cbr -e 210 -c 2 -i 8 -a 2 -x {1.0 3.1 8 ------- null}
- -t 0.54 -s 1 -d 2 -p cbr -e 210 -c 2 -i 8 -a 2 -x {1.0 3.1 8 ------- null}
h -t 0.54 -s 1 -d 2 -p cbr -e 210 -c 2 -i 8 -a 2 -x {1.0 3.1 -1 ------- null}
r -t 0.54084 -s 1 -d 2 -p cbr -e 210 -c 2 -i 5 -a 2 -x {1.0 3.1 5 ------- null}
+ -t 0.54084 -s 2 -d 3 -p cbr -e 210 -c 2 -i 5 -a 2 -x {1.0 3.1 5 ------- null}
- -t 0.54084 -s 2 -d 3 -p cbr -e 210 -c 2 -i 5 -a 2 -x {1.0 3.1 5 ------- null}
h -t 0.54084 -s 2 -d 3 -p cbr -e 210 -c 2 -i 5 -a 2 -x {1.0 3.1 -1 ------- null}
r -t 0.5414 -s 2 -d 3 -p cbr -e 210 -c 2 -i 1 -a 2 -x {1.0 3.1 1 ------- null}
+ -t 0.545 -s 1 -d 2 -p cbr -e 210 -c 2 -i 9 -a 2 -x {1.0 3.1 9 ------- null}
- -t 0.545 -s 1 -d 2 -p cbr -e 210 -c 2 -i 9 -a 2 -x {1.0 3.1 9 ------- null}
h -t 0.545 -s 1 -d 2 -p cbr -e 210 -c 2 -i 9 -a 2 -x {1.0 3.1 -1 ------- null}
r -t 0.54584 -s 1 -d 2 -p cbr -e 210 -c 2 -i 6 -a 2 -x {1.0 3.1 6 ------- null}
+ -t 0.54584 -s 2 -d 3 -p cbr -e 210 -c 2 -i 6 -a 2 -x {1.0 3.1 6 ------- null}
- -t 0.54584 -s 2 -d 3 -p cbr -e 210 -c 2 -i 6 -a 2 -x {1.0 3.1 6 ------- null}
h -t 0.54584 -s 2 -d 3 -p cbr -e 210 -c 2 -i 6 -a 2 -x {1.0 3.1 -1 ------- null}
r -t 0.5464 -s 2 -d 3 -p cbr -e 210 -c 2 -i 2 -a 2 -x {1.0 3.1 2 ------- null}
+ -t 0.55 -s 1 -d 2 -p cbr -e 210 -c 2 -i 10 -a 2 -x {1.0 3.1 10 ------- null}
- -t 0.55 -s 1 -d 2 -p cbr -e 210 -c 2 -i 10 -a 2 -x {1.0 3.1 10 ------- null}
h -t 0.55 -s 1 -d 2 -p cbr -e 210 -c 2 -i 10 -a 2 -x {1.0 3.1 -1 ------- null}
r -t 0.55084 -s 1 -d 2 -p cbr -e 210 -c 2 -i 7 -a 2 -x {1.0 3.1 7 ------- null}
+ -t 0.55084 -s 2 -d 3 -p cbr -e 210 -c 2 -i 7 -a 2 -x {1.0 3.1 7 ------- null}
- -t 0.55084 -s 2 -d 3 -p cbr -e 210 -c 2 -i 7 -a 2 -x {1.0 3.1 7 ------- null}
h -t 0.55084 -s 2 -d 3 -p cbr -e 210 -c 2 -i 7 -a 2 -x {1.0 3.1 -1 ------- null}
r -t 0.5514 -s 2 -d 3 -p cbr -e 210 -c 2 -i 3 -a 2 -x {1.0 3.1 3 ------- null}
+ -t 0.555 -s 1 -d 2 -p cbr -e 210 -c 2 -i 11 -a 2 -x {1.0 3.1 11 ------- null}
- -t 0.555 -s 1 -d 2 -p cbr -e 210 -c 2 -i 11 -a 2 -x {1.0 3.1 11 ------- null}
h -t 0.555 -s 1 -d 2 -p cbr -e 210 -c 2 -i 11 -a 2 -x {1.0 3.1 -1 ------- null}
r -t 0.55584 -s 1 -d 2 -p cbr -e 210 -c 2 -i 8 -a 2 -x {1.0 3.1 8 ------- null}
+ -t 0.55584 -s 2 -d 3 -p cbr -e 210 -c 2 -i 8 -a 2 -x {1.0 3.1 8 ------- null}
- -t 0.55584 -s 2 -d 3 -p cbr -e 210 -c 2 -i 8 -a 2 -x {1.0 3.1 8 ------- null}
h -t 0.55584 -s 2 -d 3 -p cbr -e 210 -c 2 -i 8 -a 2 -x {1.0 3.1 -1 ------- null}
r -t 0.5564 -s 2 -d 3 -p cbr -e 210 -c 2 -i 4 -a 2 -x {1.0 3.1 4 ------- null}
+ -t 0.56 -s 1 -d 2 -p cbr -e 210 -c 2 -i 12 -a 2 -x {1.0 3.1 12 ------- null}
- -t 0.56 -s 1 -d 2 -p cbr -e 210 -c 2 -i 12 -a 2 -x {1.0 3.1 12 ------- null}
h -t 0.56 -s 1 -d 2 -p cbr -e 210 -c 2 -i 12 -a 2 -x {1.0 3.1 -1 ------- null}
r -t 0.56084 -s 1 -d 2 -p cbr -e 210 -c 2 -i 9 -a 2 -x {1.0 3.1 9 ------- null}
+ -t 0.56084 -s 2 -d 3 -p cbr -e 210 -c 2 -i 9 -a 2 -x {1.0 3.1 9 ------- null}
- -t 0.56084 -s 2 -d 3 -p cbr -e 210 -c 2 -i 9 -a 2 -x {1.0 3.1 9 ------- null}
h -t 0.56084 -s 2 -d 3 -p cbr -e 210 -c 2 -i 9 -a 2 -x {1.0 3.1 -1 ------- null}
r -t 0.5614 -s 2 -d 3 -p cbr -e 210 -c 2 -i 5 -a 2 -x {1.0 3.1 5 ------- null}
+ -t 0.565 -s 1 -d 2 -p cbr -e 210 -c 2 -i 13 -a 2 -x {1.0 3.1 13 ------- null}
- -t 0.565 -s 1 -d 2 -p cbr -e 210 -c 2 -i 13 -a 2 -x {1.0 3.1 13 ------- null}
h -t 0.565 -s 1 -d 2 -p cbr -e 210 -c 2 -i 13 -a 2 -x {1.0 3.1 -1 ------- null}
r -t 0.56584 -s 1 -d 2 -p cbr -e 210 -c 2 -i 10 -a 2 -x {1.0 3.1 10 ------- null}
+ -t 0.56584 -s 2 -d 3 -p cbr -e 210 -c 2 -i 10 -a 2 -x {1.0 3.1 10 ------- null}
- -t 0.56584 -s 2 -d 3 -p cbr -e 210 -c 2 -i 10 -a 2 -x {1.0 3.1 10 ------- null}
h -t 0.56584 -s 2 -d 3 -p cbr -e 210 -c 2 -i 10 -a 2 -x {1.0 3.1 -1 ------- null}
r -t 0.5664 -s 2 -d 3 -p cbr -e 210 -c 2 -i 6 -a 2 -x {1.0 3.1 6 ------- null}
+ -t 0.57 -s 1 -d 2 -p cbr -e 210 -c 2 -i 14 -a 2 -x {1.0 3.1 14 ------- null}
- -t 0.57 -s 1 -d 2 -p cbr -e 210 -c 2 -i 14 -a 2 -x {1.0 3.1 14 ------- null}
h -t 0.57 -s 1 -d 2 -p cbr -e 210 -c 2 -i 14 -a 2 -x {1.0 3.1 -1 ------- null}
r -t 0.57084 -s 1 -d 2 -p cbr -e 210 -c 2 -i 11 -a 2 -x {1.0 3.1 11 ------- null}
+ -t 0.57084 -s 2 -d 3 -p cbr -e 210 -c 2 -i 11 -a 2 -x {1.0 3.1 11 ------- null}
- -t 0.57084 -s 2 -d 3 -p cbr -e 210 -c 2 -i 11 -a 2 -x {1.0 3.1 11 ------- null}
h -t 0.57084 -s 2 -d 3 -p cbr -e 210 -c 2 -i 11 -a 2 -x {1.0 3.1 -1 ------- null}
r -t 0.5714 -s 2 -d 3 -p cbr -e 210 -c 2 -i 7 -a 2 -x {1.0 3.1 7 ------- null}
+ -t 0.575 -s 1 -d 2 -p cbr -e 210 -c 2 -i 15 -a 2 -x {1.0 3.1 15 ------- null}
- -t 0.575 -s 1 -d 2 -p cbr -e 210 -c 2 -i 15 -a 2 -x {1.0 3.1 15 ------- null}
h -t 0.575 -s 1 -d 2 -p cbr -e 210 -c 2 -i 15 -a 2 -x {1.0 3.1 -1 ------- null}
r -t 0.57584 -s 1 -d 2 -p cbr -e 210 -c 2 -i 12 -a 2 -x {1.0 3.1 12 ------- null}
+ -t 0.57584 -s 2 -d 3 -p cbr -e 210 -c 2 -i 12 -a 2 -x {1.0 3.1 12 ------- null}
- -t 0.57584 -s 2 -d 3 -p cbr -e 210 -c 2 -i 12 -a 2 -x {1.0 3.1 12 ------- null}
h -t 0.57584 -s 2 -d 3 -p cbr -e 210 -c 2 -i 12 -a 2 -x {1.0 3.1 -1 ------- null}
r -t 0.5764 -s 2 -d 3 -p cbr -e 210 -c 2 -i 8 -a 2 -x {1.0 3.1 8 ------- null}
+ -t 0.58 -s 1 -d 2 -p cbr -e 210 -c 2 -i 16 -a 2 -x {1.0 3.1 16 ------- null}
- -t 0.58 -s 1 -d 2 -p cbr -e 210 -c 2 -i 16 -a 2 -x {1.0 3.1 16 ------- null}
h -t 0.58 -s 1 -d 2 -p cbr -e 210 -c 2 -i 16 -a 2 -x {1.0 3.1 -1 ------- null}
r -t 0.58084 -s 1 -d 2 -p cbr -e 210 -c 2 -i 13 -a 2 -x {1.0 3.1 13 ------- null}
+ -t 0.58084 -s 2 -d 3 -p cbr -e 210 -c 2 -i 13 -a 2 -x {1.0 3.1 13 ------- null}
- -t 0.58084 -s 2 -d 3 -p cbr -e 210 -c 2 -i 13 -a 2 -x {1.0 3.1 13 ------- null}
h -t 0.58084 -s 2 -d 3 -p cbr -e 210 -c 2 -i 13 -a 2 -x {1.0 3.1 -1 ------- null}
r -t 0.5814 -s 2 -d 3 -p cbr -e 210 -c 2 -i 9 -a 2 -x {1.0 3.1 9 ------- null}
+ -t 0.585 -s 1 -d 2 -p cbr -e 210 -c 2 -i 17 -a 2 -x {1.0 3.1 17 ------- null}
- -t 0.585 -s 1 -d 2 -p cbr -e 210 -c 2 -i 17 -a 2 -x {1.0 3.1 17 ------- null}
h -t 0.585 -s 1 -d 2 -p cbr -e 210 -c 2 -i 17 -a 2 -x {1.0 3.1 -1 ------- null}
r -t 0.58584 -s 1 -d 2 -p cbr -e 210 -c 2 -i 14 -a 2 -x {1.0 3.1 14 ------- null}
+ -t 0.58584 -s 2 -d 3 -p cbr -e 210 -c 2 -i 14 -a 2 -x {1.0 3.1 14 ------- null}
- -t 0.58584 -s 2 -d 3 -p cbr -e 210 -c 2 -i 14 -a 2 -x {1.0 3.1 14 ------- null}
h -t 0.58584 -s 2 -d 3 -p cbr -e 210 -c 2 -i 14 -a 2 -x {1.0 3.1 -1 ------- null}
r -t 0.5864 -s 2 -d 3 -p cbr -e 210 -c 2 -i 10 -a 2 -x {1.0 3.1 10 ------- null}
+ -t 0.59 -s 1 -d 2 -p cbr -e 210 -c 2 -i 18 -a 2 -x {1.0 3.1 18 ------- null}
- -t 0.59 -s 1 -d 2 -p cbr -e 210 -c 2 -i 18 -a 2 -x {1.0 3.1 18 ------- null}
h -t 0.59 -s 1 -d 2 -p cbr -e 210 -c 2 -i 18 -a 2 -x {1.0 3.1 -1 ------- null}
r -t 0.59084 -s 1 -d 2 -p cbr -e 210 -c 2 -i 15 -a 2 -x {1.0 3.1 15 ------- null}
+ -t 0.59084 -s 2 -d 3 -p cbr -e 210 -c 2 -i 15 -a 2 -x {1.0 3.1 15 ------- null}
- -t 0.59084 -s 2 -d 3 -p cbr -e 210 -c 2 -i 15 -a 2 -x {1.0 3.1 15 ------- null}
h -t 0.59084 -s 2 -d 3 -p cbr -e 210 -c 2 -i 15 -a 2 -x {1.0 3.1 -1 ------- null}
r -t 0.5914 -s 2 -d 3 -p cbr -e 210 -c 2 -i 11 -a 2 -x {1.0 3.1 11 ------- null}
+ -t 0.595 -s 1 -d 2 -p cbr -e 210 -c 2 -i 19 -a 2 -x {1.0 3.1 19 ------- null}
- -t 0.595 -s 1 -d 2 -p cbr -e 210 -c 2 -i 19 -a 2 -x {1.0 3.1 19 ------- null}
h -t 0.595 -s 1 -d 2 -p cbr -e 210 -c 2 -i 19 -a 2 -x {1.0 3.1 -1 ------- null}
r -t 0.59584 -s 1 -d 2 -p cbr -e 210 -c 2 -i 16 -a 2 -x {1.0 3.1 16 ------- null}
+ -t 0.59584 -s 2 -d 3 -p cbr -e 210 -c 2 -i 16 -a 2 -x {1.0 3.1 16 ------- null}
- -t 0.59584 -s 2 -d 3 -p cbr -e 210 -c 2 -i 16 -a 2 -x {1.0 3.1 16 ------- null}
h -t 0.59584 -s 2 -d 3 -p cbr -e 210 -c 2 -i 16 -a 2 -x {1.0 3.1 -1 ------- null}
r -t 0.5964 -s 2 -d 3 -p cbr -e 210 -c 2 -i 12 -a 2 -x {1.0 3.1 12 ------- null}
+ -t 0.6 -s 1 -d 2 -p cbr -e 210 -c 2 -i 20 -a 2 -x {1.0 3.1 20 ------- null}
- -t 0.6 -s 1 -d 2 -p cbr -e 210 -c 2 -i 20 -a 2 -x {1.0 3.1 20 ------- null}
h -t 0.6 -s 1 -d 2 -p cbr -e 210 -c 2 -i 20 -a 2 -x {1.0 3.1 -1 ------- null}
r -t 0.60084 -s 1 -d 2 -p cbr -e 210 -c 2 -i 17 -a 2 -x {1.0 3.1 17 ------- null}
+ -t 0.60084 -s 2 -d 3 -p cbr -e 210 -c 2 -i 17 -a 2 -x {1.0 3.1 17 ------- null}
- -t 0.60084 -s 2 -d 3 -p cbr -e 210 -c 2 -i 17 -a 2 -x {1.0 3.1 17 ------- null}
h -t 0.60084 -s 2 -d 3 -p cbr -e 210 -c 2 -i 17 -a 2 -x {1.0 3.1 -1 ------- null}
r -t 0.6014 -s 2 -d 3 -p cbr -e 210 -c 2 -i 13 -a 2 -x {1.0 3.1 13 ------- null}
+ -t 0.605 -s 1 -d 2 -p cbr -e 210 -c 2 -i 21 -a 2 -x {1.0 3.1 21 ------- null}
- -t 0.605 -s 1 -d 2 -p cbr -e 210 -c 2 -i 21 -a 2 -x {1.0 3.1 21 ------- null}
h -t 0.605 -s 1 -d 2 -p cbr -e 210 -c 2 -i 21 -a 2 -x {1.0 3.1 -1 ------- null}
r -t 0.60584 -s 1 -d 2 -p cbr -e 210 -c 2 -i 18 -a 2 -x {1.0 3.1 18 ------- null}
+ -t 0.60584 -s 2 -d 3 -p cbr -e 210 -c 2 -i 18 -a 2 -x {1.0 3.1 18 ------- null}
- -t 0.60584 -s 2 -d 3 -p cbr -e 210 -c 2 -i 18 -a 2 -x {1.0 3.1 18 ------- null}
h -t 0.60584 -s 2 -d 3 -p cbr -e 210 -c 2 -i 18 -a 2 -x {1.0 3.1 -1 ------- null}
r -t 0.6064 -s 2 -d 3 -p cbr -e 210 -c 2 -i 14 -a 2 -x {1.0 3.1 14 ------- null}
+ -t 0.61 -s 1 -d 2 -p cbr -e 210 -c 2 -i 22 -a 2 -x {1.0 3.1 22 ------- null}
- -t 0.61 -s 1 -d 2 -p cbr -e 210 -c 2 -i 22 -a 2 -x {1.0 3.1 22 ------- null}
h -t 0.61 -s 1 -d 2 -p cbr -e 210 -c 2 -i 22 -a 2 -x {1.0 3.1 -1 ------- null}
r -t 0.61084 -s 1 -d 2 -p cbr -e 210 -c 2 -i 19 -a 2 -x {1.0 3.1 19 ------- null}
+ -t 0.61084 -s 2 -d 3 -p cbr -e 210 -c 2 -i 19 -a 2 -x {1.0 3.1 19 ------- null}
- -t 0.61084 -s 2 -d 3 -p cbr -e 210 -c 2 -i 19 -a 2 -x {1.0 3.1 19 ------- null}
h -t 0.61084 -s 2 -d 3 -p cbr -e 210 -c 2 -i 19 -a 2 -x {1.0 3.1 -1 ------- null}
r -t 0.6114 -s 2 -d 3 -p cbr -e 210 -c 2 -i 15 -a 2 -x {1.0 3.1 15 ------- null}
+ -t 0.615 -s 1 -d 2 -p cbr -e 210 -c 2 -i 23 -a 2 -x {1.0 3.1 23 ------- null}
- -t 0.615 -s 1 -d 2 -p cbr -e 210 -c 2 -i 23 -a 2 -x {1.0 3.1 23 ------- null}
h -t 0.615 -s 1 -d 2 -p cbr -e 210 -c 2 -i 23 -a 2 -x {1.0 3.1 -1 ------- null}
r -t 0.61584 -s 1 -d 2 -p cbr -e 210 -c 2 -i 20 -a 2 -x {1.0 3.1 20 ------- null}
+ -t 0.61584 -s 2 -d 3 -p cbr -e 210 -c 2 -i 20 -a 2 -x {1.0 3.1 20 ------- null}
- -t 0.61584 -s 2 -d 3 -p cbr -e 210 -c 2 -i 20 -a 2 -x {1.0 3.1 20 ------- null}
h -t 0.61584 -s 2 -d 3 -p cbr -e 210 -c 2 -i 20 -a 2 -x {1.0 3.1 -1 ------- null}
r -t 0.6164 -s 2 -d 3 -p cbr -e 210 -c 2 -i 16 -a 2 -x {1.0 3.1 16 ------- null}
+ -t 0.62 -s 1 -d 2 -p cbr -e 210 -c 2 -i 24 -a 2 -x {1.0 3.1 24 ------- null}
- -t 0.62 -s 1 -d 2 -p cbr -e 210 -c 2 -i 24 -a 2 -x {1.0 3.1 24 ------- null}
h -t 0.62 -s 1 -d 2 -p cbr -e 210 -c 2 -i 24 -a 2 -x {1.0 3.1 -1 ------- null}
r -t 0.62084 -s 1 -d 2 -p cbr -e 210 -c 2 -i 21 -a 2 -x {1.0 3.1 21 ------- null}
+ -t 0.62084 -s 2 -d 3 -p cbr -e 210 -c 2 -i 21 -a 2 -x {1.0 3.1 21 ------- null}
- -t 0.62084 -s 2 -d 3 -p cbr -e 210 -c 2 -i 21 -a 2 -x {1.0 3.1 21 ------- null}
h -t 0.62084 -s 2 -d 3 -p cbr -e 210 -c 2 -i 21 -a 2 -x {1.0 3.1 -1 ------- null}
r -t 0.6214 -s 2 -d 3 -p cbr -e 210 -c 2 -i 17 -a 2 -x {1.0 3.1 17 ------- null}
+ -t 0.625 -s 1 -d 2 -p cbr -e 210 -c 2 -i 25 -a 2 -x {1.0 3.1 25 ------- null}
- -t 0.625 -s 1 -d 2 -p cbr -e 210 -c 2 -i 25 -a 2 -x {1.0 3.1 25 ------- null}
h -t 0.625 -s 1 -d 2 -p cbr -e 210 -c 2 -i 25 -a 2 -x {1.0 3.1 -1 ------- null}
r -t 0.62584 -s 1 -d 2 -p cbr -e 210 -c 2 -i 22 -a 2 -x {1.0 3.1 22 ------- null}
+ -t 0.62584 -s 2 -d 3 -p cbr -e 210 -c 2 -i 22 -a 2 -x {1.0 3.1 22 ------- null}
- -t 0.62584 -s 2 -d 3 -p cbr -e 210 -c 2 -i 22 -a 2 -x {1.0 3.1 22 ------- null}
h -t 0.62584 -s 2 -d 3 -p cbr -e 210 -c 2 -i 22 -a 2 -x {1.0 3.1 -1 ------- null}
r -t 0.6264 -s 2 -d 3 -p cbr -e 210 -c 2 -i 18 -a 2 -x {1.0 3.1 18 ------- null}
+ -t 0.63 -s 1 -d 2 -p cbr -e 210 -c 2 -i 26 -a 2 -x {1.0 3.1 26 ------- null}
- -t 0.63 -s 1 -d 2 -p cbr -e 210 -c 2 -i 26 -a 2 -x {1.0 3.1 26 ------- null}
h -t 0.63 -s 1 -d 2 -p cbr -e 210 -c 2 -i 26 -a 2 -x {1.0 3.1 -1 ------- null}
r -t 0.63084 -s 1 -d 2 -p cbr -e 210 -c 2 -i 23 -a 2 -x {1.0 3.1 23 ------- null}
+ -t 0.63084 -s 2 -d 3 -p cbr -e 210 -c 2 -i 23 -a 2 -x {1.0 3.1 23 ------- null}
- -t 0.63084 -s 2 -d 3 -p cbr -e 210 -c 2 -i 23 -a 2 -x {1.0 3.1 23 ------- null}
h -t 0.63084 -s 2 -d 3 -p cbr -e 210 -c 2 -i 23 -a 2 -x {1.0 3.1 -1 ------- null}
r -t 0.6314 -s 2 -d 3 -p cbr -e 210 -c 2 -i 19 -a 2 -x {1.0 3.1 19 ------- null}
+ -t 0.635 -s 1 -d 2 -p cbr -e 210 -c 2 -i 27 -a 2 -x {1.0 3.1 27 ------- null}
- -t 0.635 -s 1 -d 2 -p cbr -e 210 -c 2 -i 27 -a 2 -x {1.0 3.1 27 ------- null}
h -t 0.635 -s 1 -d 2 -p cbr -e 210 -c 2 -i 27 -a 2 -x {1.0 3.1 -1 ------- null}
r -t 0.63584 -s 1 -d 2 -p cbr -e 210 -c 2 -i 24 -a 2 -x {1.0 3.1 24 ------- null}
+ -t 0.63584 -s 2 -d 3 -p cbr -e 210 -c 2 -i 24 -a 2 -x {1.0 3.1 24 ------- null}
- -t 0.63584 -s 2 -d 3 -p cbr -e 210 -c 2 -i 24 -a 2 -x {1.0 3.1 24 ------- null}
h -t 0.63584 -s 2 -d 3 -p cbr -e 210 -c 2 -i 24 -a 2 -x {1.0 3.1 -1 ------- null}
r -t 0.6364 -s 2 -d 3 -p cbr -e 210 -c 2 -i 20 -a 2 -x {1.0 3.1 20 ------- null}
+ -t 0.64 -s 1 -d 2 -p cbr -e 210 -c 2 -i 28 -a 2 -x {1.0 3.1 28 ------- null}
- -t 0.64 -s 1 -d 2 -p cbr -e 210 -c 2 -i 28 -a 2 -x {1.0 3.1 28 ------- null}
h -t 0.64 -s 1 -d 2 -p cbr -e 210 -c 2 -i 28 -a 2 -x {1.0 3.1 -1 ------- null}
r -t 0.64084 -s 1 -d 2 -p cbr -e 210 -c 2 -i 25 -a 2 -x {1.0 3.1 25 ------- null}
+ -t 0.64084 -s 2 -d 3 -p cbr -e 210 -c 2 -i 25 -a 2 -x {1.0 3.1 25 ------- null}
- -t 0.64084 -s 2 -d 3 -p cbr -e 210 -c 2 -i 25 -a 2 -x {1.0 3.1 25 ------- null}
h -t 0.64084 -s 2 -d 3 -p cbr -e 210 -c 2 -i 25 -a 2 -x {1.0 3.1 -1 ------- null}
r -t 0.6414 -s 2 -d 3 -p cbr -e 210 -c 2 -i 21 -a 2 -x {1.0 3.1 21 ------- null}
+ -t 0.645 -s 1 -d 2 -p cbr -e 210 -c 2 -i 29 -a 2 -x {1.0 3.1 29 ------- null}
- -t 0.645 -s 1 -d 2 -p cbr -e 210 -c 2 -i 29 -a 2 -x {1.0 3.1 29 ------- null}
h -t 0.645 -s 1 -d 2 -p cbr -e 210 -c 2 -i 29 -a 2 -x {1.0 3.1 -1 ------- null}
r -t 0.64584 -s 1 -d 2 -p cbr -e 210 -c 2 -i 26 -a 2 -x {1.0 3.1 26 ------- null}
+ -t 0.64584 -s 2 -d 3 -p cbr -e 210 -c 2 -i 26 -a 2 -x {1.0 3.1 26 ------- null}
- -t 0.64584 -s 2 -d 3 -p cbr -e 210 -c 2 -i 26 -a 2 -x {1.0 3.1 26 ------- null}
h -t 0.64584 -s 2 -d 3 -p cbr -e 210 -c 2 -i 26 -a 2 -x {1.0 3.1 -1 ------- null}
r -t 0.6464 -s 2 -d 3 -p cbr -e 210 -c 2 -i 22 -a 2 -x {1.0 3.1 22 ------- null}
+ -t 0.65 -s 1 -d 2 -p cbr -e 210 -c 2 -i 30 -a 2 -x {1.0 3.1 30 ------- null}
- -t 0.65 -s 1 -d 2 -p cbr -e 210 -c 2 -i 30 -a 2 -x {1.0 3.1 30 ------- null}
h -t 0.65 -s 1 -d 2 -p cbr -e 210 -c 2 -i 30 -a 2 -x {1.0 3.1 -1 ------- null}
r -t 0.65084 -s 1 -d 2 -p cbr -e 210 -c 2 -i 27 -a 2 -x {1.0 3.1 27 ------- null}
+ -t 0.65084 -s 2 -d 3 -p cbr -e 210 -c 2 -i 27 -a 2 -x {1.0 3.1 27 ------- null}
- -t 0.65084 -s 2 -d 3 -p cbr -e 210 -c 2 -i 27 -a 2 -x {1.0 3.1 27 ------- null}
h -t 0.65084 -s 2 -d 3 -p cbr -e 210 -c 2 -i 27 -a 2 -x {1.0 3.1 -1 ------- null}
r -t 0.6514 -s 2 -d 3 -p cbr -e 210 -c 2 -i 23 -a 2 -x {1.0 3.1 23 ------- null}
+ -t 0.655 -s 1 -d 2 -p cbr -e 210 -c 2 -i 31 -a 2 -x {1.0 3.1 31 ------- null}
- -t 0.655 -s 1 -d 2 -p cbr -e 210 -c 2 -i 31 -a 2 -x {1.0 3.1 31 ------- null}
h -t 0.655 -s 1 -d 2 -p cbr -e 210 -c 2 -i 31 -a 2 -x {1.0 3.1 -1 ------- null}
r -t 0.65584 -s 1 -d 2 -p cbr -e 210 -c 2 -i 28 -a 2 -x {1.0 3.1 28 ------- null}
+ -t 0.65584 -s 2 -d 3 -p cbr -e 210 -c 2 -i 28 -a 2 -x {1.0 3.1 28 ------- null}
- -t 0.65584 -s 2 -d 3 -p cbr -e 210 -c 2 -i 28 -a 2 -x {1.0 3.1 28 ------- null}
h -t 0.65584 -s 2 -d 3 -p cbr -e 210 -c 2 -i 28 -a 2 -x {1.0 3.1 -1 ------- null}
r -t 0.6564 -s 2 -d 3 -p cbr -e 210 -c 2 -i 24 -a 2 -x {1.0 3.1 24 ------- null}
+ -t 0.66 -s 1 -d 2 -p cbr -e 210 -c 2 -i 32 -a 2 -x {1.0 3.1 32 ------- null}
- -t 0.66 -s 1 -d 2 -p cbr -e 210 -c 2 -i 32 -a 2 -x {1.0 3.1 32 ------- null}
h -t 0.66 -s 1 -d 2 -p cbr -e 210 -c 2 -i 32 -a 2 -x {1.0 3.1 -1 ------- null}
r -t 0.66084 -s 1 -d 2 -p cbr -e 210 -c 2 -i 29 -a 2 -x {1.0 3.1 29 ------- null}
+ -t 0.66084 -s 2 -d 3 -p cbr -e 210 -c 2 -i 29 -a 2 -x {1.0 3.1 29 ------- null}
- -t 0.66084 -s 2 -d 3 -p cbr -e 210 -c 2 -i 29 -a 2 -x {1.0 3.1 29 ------- null}
h -t 0.66084 -s 2 -d 3 -p cbr -e 210 -c 2 -i 29 -a 2 -x {1.0 3.1 -1 ------- null}
r -t 0.6614 -s 2 -d 3 -p cbr -e 210 -c 2 -i 25 -a 2 -x {1.0 3.1 25 ------- null}
+ -t 0.665 -s 1 -d 2 -p cbr -e 210 -c 2 -i 33 -a 2 -x {1.0 3.1 33 ------- null}
- -t 0.665 -s 1 -d 2 -p cbr -e 210 -c 2 -i 33 -a 2 -x {1.0 3.1 33 ------- null}
h -t 0.665 -s 1 -d 2 -p cbr -e 210 -c 2 -i 33 -a 2 -x {1.0 3.1 -1 ------- null}
r -t 0.66584 -s 1 -d 2 -p cbr -e 210 -c 2 -i 30 -a 2 -x {1.0 3.1 30 ------- null}
+ -t 0.66584 -s 2 -d 3 -p cbr -e 210 -c 2 -i 30 -a 2 -x {1.0 3.1 30 ------- null}
- -t 0.66584 -s 2 -d 3 -p cbr -e 210 -c 2 -i 30 -a 2 -x {1.0 3.1 30 ------- null}
h -t 0.66584 -s 2 -d 3 -p cbr -e 210 -c 2 -i 30 -a 2 -x {1.0 3.1 -1 ------- null}
r -t 0.6664 -s 2 -d 3 -p cbr -e 210 -c 2 -i 26 -a 2 -x {1.0 3.1 26 ------- null}
+ -t 0.67 -s 1 -d 2 -p cbr -e 210 -c 2 -i 34 -a 2 -x {1.0 3.1 34 ------- null}
- -t 0.67 -s 1 -d 2 -p cbr -e 210 -c 2 -i 34 -a 2 -x {1.0 3.1 34 ------- null}
h -t 0.67 -s 1 -d 2 -p cbr -e 210 -c 2 -i 34 -a 2 -x {1.0 3.1 -1 ------- null}
r -t 0.67084 -s 1 -d 2 -p cbr -e 210 -c 2 -i 31 -a 2 -x {1.0 3.1 31 ------- null}
+ -t 0.67084 -s 2 -d 3 -p cbr -e 210 -c 2 -i 31 -a 2 -x {1.0 3.1 31 ------- null}
- -t 0.67084 -s 2 -d 3 -p cbr -e 210 -c 2 -i 31 -a 2 -x {1.0 3.1 31 ------- null}
h -t 0.67084 -s 2 -d 3 -p cbr -e 210 -c 2 -i 31 -a 2 -x {1.0 3.1 -1 ------- null}
r -t 0.6714 -s 2 -d 3 -p cbr -e 210 -c 2 -i 27 -a 2 -x {1.0 3.1 27 ------- null}
+ -t 0.675 -s 1 -d 2 -p cbr -e 210 -c 2 -i 35 -a 2 -x {1.0 3.1 35 ------- null}
- -t 0.675 -s 1 -d 2 -p cbr -e 210 -c 2 -i 35 -a 2 -x {1.0 3.1 35 ------- null}
h -t 0.675 -s 1 -d 2 -p cbr -e 210 -c 2 -i 35 -a 2 -x {1.0 3.1 -1 ------- null}
r -t 0.67584 -s 1 -d 2 -p cbr -e 210 -c 2 -i 32 -a 2 -x {1.0 3.1 32 ------- null}
+ -t 0.67584 -s 2 -d 3 -p cbr -e 210 -c 2 -i 32 -a 2 -x {1.0 3.1 32 ------- null}
- -t 0.67584 -s 2 -d 3 -p cbr -e 210 -c 2 -i 32 -a 2 -x {1.0 3.1 32 ------- null}
h -t 0.67584 -s 2 -d 3 -p cbr -e 210 -c 2 -i 32 -a 2 -x {1.0 3.1 -1 ------- null}
r -t 0.6764 -s 2 -d 3 -p cbr -e 210 -c 2 -i 28 -a 2 -x {1.0 3.1 28 ------- null}
+ -t 0.68 -s 1 -d 2 -p cbr -e 210 -c 2 -i 36 -a 2 -x {1.0 3.1 36 ------- null}
- -t 0.68 -s 1 -d 2 -p cbr -e 210 -c 2 -i 36 -a 2 -x {1.0 3.1 36 ------- null}
h -t 0.68 -s 1 -d 2 -p cbr -e 210 -c 2 -i 36 -a 2 -x {1.0 3.1 -1 ------- null}
r -t 0.68084 -s 1 -d 2 -p cbr -e 210 -c 2 -i 33 -a 2 -x {1.0 3.1 33 ------- null}
+ -t 0.68084 -s 2 -d 3 -p cbr -e 210 -c 2 -i 33 -a 2 -x {1.0 3.1 33 ------- null}
- -t 0.68084 -s 2 -d 3 -p cbr -e 210 -c 2 -i 33 -a 2 -x {1.0 3.1 33 ------- null}
h -t 0.68084 -s 2 -d 3 -p cbr -e 210 -c 2 -i 33 -a 2 -x {1.0 3.1 -1 ------- null}
r -t 0.6814 -s 2 -d 3 -p cbr -e 210 -c 2 -i 29 -a 2 -x {1.0 3.1 29 ------- null}
+ -t 0.685 -s 1 -d 2 -p cbr -e 210 -c 2 -i 37 -a 2 -x {1.0 3.1 37 ------- null}
- -t 0.685 -s 1 -d 2 -p cbr -e 210 -c 2 -i 37 -a 2 -x {1.0 3.1 37 ------- null}
h -t 0.685 -s 1 -d 2 -p cbr -e 210 -c 2 -i 37 -a 2 -x {1.0 3.1 -1 ------- null}
r -t 0.68584 -s 1 -d 2 -p cbr -e 210 -c 2 -i 34 -a 2 -x {1.0 3.1 34 ------- null}
+ -t 0.68584 -s 2 -d 3 -p cbr -e 210 -c 2 -i 34 -a 2 -x {1.0 3.1 34 ------- null}
- -t 0.68584 -s 2 -d 3 -p cbr -e 210 -c 2 -i 34 -a 2 -x {1.0 3.1 34 ------- null}
h -t 0.68584 -s 2 -d 3 -p cbr -e 210 -c 2 -i 34 -a 2 -x {1.0 3.1 -1 ------- null}
r -t 0.6864 -s 2 -d 3 -p cbr -e 210 -c 2 -i 30 -a 2 -x {1.0 3.1 30 ------- null}
+ -t 0.69 -s 1 -d 2 -p cbr -e 210 -c 2 -i 38 -a 2 -x {1.0 3.1 38 ------- null}
- -t 0.69 -s 1 -d 2 -p cbr -e 210 -c 2 -i 38 -a 2 -x {1.0 3.1 38 ------- null}
h -t 0.69 -s 1 -d 2 -p cbr -e 210 -c 2 -i 38 -a 2 -x {1.0 3.1 -1 ------- null}
r -t 0.69084 -s 1 -d 2 -p cbr -e 210 -c 2 -i 35 -a 2 -x {1.0 3.1 35 ------- null}
+ -t 0.69084 -s 2 -d 3 -p cbr -e 210 -c 2 -i 35 -a 2 -x {1.0 3.1 35 ------- null}
- -t 0.69084 -s 2 -d 3 -p cbr -e 210 -c 2 -i 35 -a 2 -x {1.0 3.1 35 ------- null}
h -t 0.69084 -s 2 -d 3 -p cbr -e 210 -c 2 -i 35 -a 2 -x {1.0 3.1 -1 ------- null}
r -t 0.6914 -s 2 -d 3 -p cbr -e 210 -c 2 -i 31 -a 2 -x {1.0 3.1 31 ------- null}
+ -t 0.695 -s 1 -d 2 -p cbr -e 210 -c 2 -i 39 -a 2 -x {1.0 3.1 39 ------- null}
- -t 0.695 -s 1 -d 2 -p cbr -e 210 -c 2 -i 39 -a 2 -x {1.0 3.1 39 ------- null}
h -t 0.695 -s 1 -d 2 -p cbr -e 210 -c 2 -i 39 -a 2 -x {1.0 3.1 -1 ------- null}
r -t 0.69584 -s 1 -d 2 -p cbr -e 210 -c 2 -i 36 -a 2 -x {1.0 3.1 36 ------- null}
+ -t 0.69584 -s 2 -d 3 -p cbr -e 210 -c 2 -i 36 -a 2 -x {1.0 3.1 36 ------- null}
- -t 0.69584 -s 2 -d 3 -p cbr -e 210 -c 2 -i 36 -a 2 -x {1.0 3.1 36 ------- null}
h -t 0.69584 -s 2 -d 3 -p cbr -e 210 -c 2 -i 36 -a 2 -x {1.0 3.1 -1 ------- null}
r -t 0.6964 -s 2 -d 3 -p cbr -e 210 -c 2 -i 32 -a 2 -x {1.0 3.1 32 ------- null}
+ -t 0.7 -s 1 -d 2 -p cbr -e 210 -c 2 -i 40 -a 2 -x {1.0 3.1 40 ------- null}
- -t 0.7 -s 1 -d 2 -p cbr -e 210 -c 2 -i 40 -a 2 -x {1.0 3.1 40 ------- null}
h -t 0.7 -s 1 -d 2 -p cbr -e 210 -c 2 -i 40 -a 2 -x {1.0 3.1 -1 ------- null}
r -t 0.70084 -s 1 -d 2 -p cbr -e 210 -c 2 -i 37 -a 2 -x {1.0 3.1 37 ------- null}
+ -t 0.70084 -s 2 -d 3 -p cbr -e 210 -c 2 -i 37 -a 2 -x {1.0 3.1 37 ------- null}
- -t 0.70084 -s 2 -d 3 -p cbr -e 210 -c 2 -i 37 -a 2 -x {1.0 3.1 37 ------- null}
h -t 0.70084 -s 2 -d 3 -p cbr -e 210 -c 2 -i 37 -a 2 -x {1.0 3.1 -1 ------- null}
r -t 0.7014 -s 2 -d 3 -p cbr -e 210 -c 2 -i 33 -a 2 -x {1.0 3.1 33 ------- null}
+ -t 0.705 -s 1 -d 2 -p cbr -e 210 -c 2 -i 41 -a 2 -x {1.0 3.1 41 ------- null}
- -t 0.705 -s 1 -d 2 -p cbr -e 210 -c 2 -i 41 -a 2 -x {1.0 3.1 41 ------- null}
h -t 0.705 -s 1 -d 2 -p cbr -e 210 -c 2 -i 41 -a 2 -x {1.0 3.1 -1 ------- null}
r -t 0.70584 -s 1 -d 2 -p cbr -e 210 -c 2 -i 38 -a 2 -x {1.0 3.1 38 ------- null}
+ -t 0.70584 -s 2 -d 3 -p cbr -e 210 -c 2 -i 38 -a 2 -x {1.0 3.1 38 ------- null}
- -t 0.70584 -s 2 -d 3 -p cbr -e 210 -c 2 -i 38 -a 2 -x {1.0 3.1 38 ------- null}
h -t 0.70584 -s 2 -d 3 -p cbr -e 210 -c 2 -i 38 -a 2 -x {1.0 3.1 -1 ------- null}
r -t 0.7064 -s 2 -d 3 -p cbr -e 210 -c 2 -i 34 -a 2 -x {1.0 3.1 34 ------- null}
+ -t 0.71 -s 1 -d 2 -p cbr -e 210 -c 2 -i 42 -a 2 -x {1.0 3.1 42 ------- null}
- -t 0.71 -s 1 -d 2 -p cbr -e 210 -c 2 -i 42 -a 2 -x {1.0 3.1 42 ------- null}
h -t 0.71 -s 1 -d 2 -p cbr -e 210 -c 2 -i 42 -a 2 -x {1.0 3.1 -1 ------- null}
r -t 0.71084 -s 1 -d 2 -p cbr -e 210 -c 2 -i 39 -a 2 -x {1.0 3.1 39 ------- null}
+ -t 0.71084 -s 2 -d 3 -p cbr -e 210 -c 2 -i 39 -a 2 -x {1.0 3.1 39 ------- null}
- -t 0.71084 -s 2 -d 3 -p cbr -e 210 -c 2 -i 39 -a 2 -x {1.0 3.1 39 ------- null}
h -t 0.71084 -s 2 -d 3 -p cbr -e 210 -c 2 -i 39 -a 2 -x {1.0 3.1 -1 ------- null}
r -t 0.7114 -s 2 -d 3 -p cbr -e 210 -c 2 -i 35 -a 2 -x {1.0 3.1 35 ------- null}
+ -t 0.715 -s 1 -d 2 -p cbr -e 210 -c 2 -i 43 -a 2 -x {1.0 3.1 43 ------- null}
- -t 0.715 -s 1 -d 2 -p cbr -e 210 -c 2 -i 43 -a 2 -x {1.0 3.1 43 ------- null}
h -t 0.715 -s 1 -d 2 -p cbr -e 210 -c 2 -i 43 -a 2 -x {1.0 3.1 -1 ------- null}
r -t 0.71584 -s 1 -d 2 -p cbr -e 210 -c 2 -i 40 -a 2 -x {1.0 3.1 40 ------- null}
+ -t 0.71584 -s 2 -d 3 -p cbr -e 210 -c 2 -i 40 -a 2 -x {1.0 3.1 40 ------- null}
- -t 0.71584 -s 2 -d 3 -p cbr -e 210 -c 2 -i 40 -a 2 -x {1.0 3.1 40 ------- null}
h -t 0.71584 -s 2 -d 3 -p cbr -e 210 -c 2 -i 40 -a 2 -x {1.0 3.1 -1 ------- null}
r -t 0.7164 -s 2 -d 3 -p cbr -e 210 -c 2 -i 36 -a 2 -x {1.0 3.1 36 ------- null}
+ -t 0.72 -s 1 -d 2 -p cbr -e 210 -c 2 -i 44 -a 2 -x {1.0 3.1 44 ------- null}
- -t 0.72 -s 1 -d 2 -p cbr -e 210 -c 2 -i 44 -a 2 -x {1.0 3.1 44 ------- null}
h -t 0.72 -s 1 -d 2 -p cbr -e 210 -c 2 -i 44 -a 2 -x {1.0 3.1 -1 ------- null}
r -t 0.72084 -s 1 -d 2 -p cbr -e 210 -c 2 -i 41 -a 2 -x {1.0 3.1 41 ------- null}
+ -t 0.72084 -s 2 -d 3 -p cbr -e 210 -c 2 -i 41 -a 2 -x {1.0 3.1 41 ------- null}
- -t 0.72084 -s 2 -d 3 -p cbr -e 210 -c 2 -i 41 -a 2 -x {1.0 3.1 41 ------- null}
h -t 0.72084 -s 2 -d 3 -p cbr -e 210 -c 2 -i 41 -a 2 -x {1.0 3.1 -1 ------- null}
r -t 0.7214 -s 2 -d 3 -p cbr -e 210 -c 2 -i 37 -a 2 -x {1.0 3.1 37 ------- null}
+ -t 0.725 -s 1 -d 2 -p cbr -e 210 -c 2 -i 45 -a 2 -x {1.0 3.1 45 ------- null}
- -t 0.725 -s 1 -d 2 -p cbr -e 210 -c 2 -i 45 -a 2 -x {1.0 3.1 45 ------- null}
h -t 0.725 -s 1 -d 2 -p cbr -e 210 -c 2 -i 45 -a 2 -x {1.0 3.1 -1 ------- null}
r -t 0.72584 -s 1 -d 2 -p cbr -e 210 -c 2 -i 42 -a 2 -x {1.0 3.1 42 ------- null}
+ -t 0.72584 -s 2 -d 3 -p cbr -e 210 -c 2 -i 42 -a 2 -x {1.0 3.1 42 ------- null}
- -t 0.72584 -s 2 -d 3 -p cbr -e 210 -c 2 -i 42 -a 2 -x {1.0 3.1 42 ------- null}
h -t 0.72584 -s 2 -d 3 -p cbr -e 210 -c 2 -i 42 -a 2 -x {1.0 3.1 -1 ------- null}
r -t 0.7264 -s 2 -d 3 -p cbr -e 210 -c 2 -i 38 -a 2 -x {1.0 3.1 38 ------- null}
+ -t 0.73 -s 1 -d 2 -p cbr -e 210 -c 2 -i 46 -a 2 -x {1.0 3.1 46 ------- null}
- -t 0.73 -s 1 -d 2 -p cbr -e 210 -c 2 -i 46 -a 2 -x {1.0 3.1 46 ------- null}
h -t 0.73 -s 1 -d 2 -p cbr -e 210 -c 2 -i 46 -a 2 -x {1.0 3.1 -1 ------- null}
r -t 0.73084 -s 1 -d 2 -p cbr -e 210 -c 2 -i 43 -a 2 -x {1.0 3.1 43 ------- null}
+ -t 0.73084 -s 2 -d 3 -p cbr -e 210 -c 2 -i 43 -a 2 -x {1.0 3.1 43 ------- null}
- -t 0.73084 -s 2 -d 3 -p cbr -e 210 -c 2 -i 43 -a 2 -x {1.0 3.1 43 ------- null}
h -t 0.73084 -s 2 -d 3 -p cbr -e 210 -c 2 -i 43 -a 2 -x {1.0 3.1 -1 ------- null}
r -t 0.7314 -s 2 -d 3 -p cbr -e 210 -c 2 -i 39 -a 2 -x {1.0 3.1 39 ------- null}
+ -t 0.735 -s 1 -d 2 -p cbr -e 210 -c 2 -i 47 -a 2 -x {1.0 3.1 47 ------- null}
- -t 0.735 -s 1 -d 2 -p cbr -e 210 -c 2 -i 47 -a 2 -x {1.0 3.1 47 ------- null}
h -t 0.735 -s 1 -d 2 -p cbr -e 210 -c 2 -i 47 -a 2 -x {1.0 3.1 -1 ------- null}
r -t 0.73584 -s 1 -d 2 -p cbr -e 210 -c 2 -i 44 -a 2 -x {1.0 3.1 44 ------- null}
+ -t 0.73584 -s 2 -d 3 -p cbr -e 210 -c 2 -i 44 -a 2 -x {1.0 3.1 44 ------- null}
- -t 0.73584 -s 2 -d 3 -p cbr -e 210 -c 2 -i 44 -a 2 -x {1.0 3.1 44 ------- null}
h -t 0.73584 -s 2 -d 3 -p cbr -e 210 -c 2 -i 44 -a 2 -x {1.0 3.1 -1 ------- null}
r -t 0.7364 -s 2 -d 3 -p cbr -e 210 -c 2 -i 40 -a 2 -x {1.0 3.1 40 ------- null}
+ -t 0.74 -s 1 -d 2 -p cbr -e 210 -c 2 -i 48 -a 2 -x {1.0 3.1 48 ------- null}