V -t * -v 1.0a5 -a 0
A -t * -n 1 -p 0 -o 0x7fffffff -c 30 -a 1
A -t * -h 1 -m 1073741823 -s 0
n -t * -a 8 -s 8 -S UP -v circle -c black -i black
n -t * -a 4 -s 4 -S UP -v circle -c black -i black
n -t * -a 0 -s 0 -S UP -v circle -c black -i black
n -t * -a 9 -s 9 -S UP -v circle -c black -i black
n -t * -a 5 -s 5 -S UP -v circle -c black -i black
n -t * -a 1 -s 1 -S UP -v circle -c black -i black
n -t * -a 6 -s 6 -S UP -v circle -c black -i black
n -t * -a 2 -s 2 -S UP -v circle -c black -i black
n -t * -a 7 -s 7 -S UP -v circle -c black -i black
n -t * -a 3 -s 3 -S UP -v circle -c black -i black
X -t * -n 10 -r 100Mb -D 10ms -o left
L -t * -s 10 -d 0 -o up
L -t * -s 10 -d 1 -o down
L -t * -s 10 -d 2 -o up
L -t * -s 10 -d 3 -o down
L -t * -s 10 -d 4 -o up
L -t * -s 10 -d 5 -o down
L -t * -s 10 -d 6 -o up
L -t * -s 10 -d 7 -o down
L -t * -s 10 -d 8 -o up
L -t * -s 10 -d 9 -o down
h -t 0.5 -s 0 -d 10 -p tcp -e 40 -c 0 -i 0 -a 0 -x {0.0 2.0 0 ------- null}
+ -t 0.51 -s 0 -d 10 -p tcp -e 40 -c 0 -i 0 -a 0 -x {0.0 2.0 0 ------- null}
- -t 0.51 -s 0 -d 10 -p tcp -e 40 -c 0 -i 0 -a 0 -x {0.0 2.0 0 ------- null}
h -t 0.51 -s 0 -d 10 -p tcp -e 40 -c 0 -i 0 -a 0 -x {0.0 2.0 -1 ------- null}
r -t 0.52000912 -s 10 -d 2 -p tcp -e 40 -c 0 -i 0 -a 0 -x {0.0 2.0 0 ------- null}
h -t 0.52000912 -s 2 -d 10 -p ack -e 40 -c 0 -i 1 -a 0 -x {2.0 0.0 0 ------- null}
+ -t 0.53000912 -s 2 -d 10 -p ack -e 40 -c 0 -i 1 -a 0 -x {2.0 0.0 0 ------- null}
- -t 0.53000912 -s 2 -d 10 -p ack -e 40 -c 0 -i 1 -a 0 -x {2.0 0.0 0 ------- null}
h -t 0.53000912 -s 2 -d 10 -p ack -e 40 -c 0 -i 1 -a 0 -x {2.0 0.0 -1 ------- null}
r -t 0.54001824 -s 10 -d 0 -p ack -e 40 -c 0 -i 1 -a 0 -x {2.0 0.0 0 ------- null}
h -t 0.54001824 -s 0 -d 10 -p tcp -e 1040 -c 0 -i 2 -a 0 -x {0.0 2.0 1 ------- null}
h -t 0.54001824 -s 0 -d 10 -p tcp -e 1040 -c 0 -i 3 -a 0 -x {0.0 2.0 2 ------- null}
+ -t 0.55001824 -s 0 -d 10 -p tcp -e 1040 -c 0 -i 2 -a 0 -x {0.0 2.0 1 ------- null}
- -t 0.55001824 -s 0 -d 10 -p tcp -e 1040 -c 0 -i 2 -a 0 -x {0.0 2.0 1 ------- null}
h -t 0.55001824 -s 0 -d 10 -p tcp -e 1040 -c 0 -i 2 -a 0 -x {0.0 2.0 -1 ------- null}
+ -t 0.55001824 -s 0 -d 10 -p tcp -e 1040 -c 0 -i 3 -a 0 -x {0.0 2.0 2 ------- null}
- -t 0.55010352 -s 0 -d 10 -p tcp -e 1040 -c 0 -i 3 -a 0 -x {0.0 2.0 2 ------- null}
h -t 0.55010352 -s 0 -d 10 -p tcp -e 1040 -c 0 -i 3 -a 0 -x {0.0 2.0 -1 ------- null}
r -t 0.56010656 -s 10 -d 2 -p tcp -e 1040 -c 0 -i 2 -a 0 -x {0.0 2.0 1 ------- null}
h -t 0.56010656 -s 2 -d 10 -p ack -e 40 -c 0 -i 4 -a 0 -x {2.0 0.0 1 ------- null}
r -t 0.56019184 -s 10 -d 2 -p tcp -e 1040 -c 0 -i 3 -a 0 -x {0.0 2.0 2 ------- null}
h -t 0.56019184 -s 2 -d 10 -p ack -e 40 -c 0 -i 5 -a 0 -x {2.0 0.0 2 ------- null}
+ -t 0.57010656 -s 2 -d 10 -p ack -e 40 -c 0 -i 4 -a 0 -x {2.0 0.0 1 ------- null}
- -t 0.57010656 -s 2 -d 10 -p ack -e 40 -c 0 -i 4 -a 0 -x {2.0 0.0 1 ------- null}
h -t 0.57010656 -s 2 -d 10 -p ack -e 40 -c 0 -i 4 -a 0 -x {2.0 0.0 -1 ------- null}
+ -t 0.57019184 -s 2 -d 10 -p ack -e 40 -c 0 -i 5 -a 0 -x {2.0 0.0 2 ------- null}
- -t 0.57019184 -s 2 -d 10 -p ack -e 40 -c 0 -i 5 -a 0 -x {2.0 0.0 2 ------- null}
h -t 0.57019184 -s 2 -d 10 -p ack -e 40 -c 0 -i 5 -a 0 -x {2.0 0.0 -1 ------- null}
r -t 0.58011568 -s 10 -d 0 -p ack -e 40 -c 0 -i 4 -a 0 -x {2.0 0.0 1 ------- null}
h -t 0.58011568 -s 0 -d 10 -p tcp -e 1040 -c 0 -i 6 -a 0 -x {0.0 2.0 3 ------- null}
h -t 0.58011568 -s 0 -d 10 -p tcp -e 1040 -c 0 -i 7 -a 0 -x {0.0 2.0 4 ------- null}
r -t 0.58020096 -s 10 -d 0 -p ack -e 40 -c 0 -i 5 -a 0 -x {2.0 0.0 2 ------- null}
h -t 0.58020096 -s 0 -d 10 -p tcp -e 1040 -c 0 -i 8 -a 0 -x {0.0 2.0 5 ------- null}
h -t 0.58020096 -s 0 -d 10 -p tcp -e 1040 -c 0 -i 9 -a 0 -x {0.0 2.0 6 ------- null}
+ -t 0.59011568 -s 0 -d 10 -p tcp -e 1040 -c 0 -i 6 -a 0 -x {0.0 2.0 3 ------- null}
- -t 0.59011568 -s 0 -d 10 -p tcp -e 1040 -c 0 -i 6 -a 0 -x {0.0 2.0 3 ------- null}
h -t 0.59011568 -s 0 -d 10 -p tcp -e 1040 -c 0 -i 6 -a 0 -x {0.0 2.0 -1 ------- null}
+ -t 0.59011568 -s 0 -d 10 -p tcp -e 1040 -c 0 -i 7 -a 0 -x {0.0 2.0 4 ------- null}
+ -t 0.59020096 -s 0 -d 10 -p tcp -e 1040 -c 0 -i 8 -a 0 -x {0.0 2.0 5 ------- null}
+ -t 0.59020096 -s 0 -d 10 -p tcp -e 1040 -c 0 -i 9 -a 0 -x {0.0 2.0 6 ------- null}
- -t 0.59020096 -s 0 -d 10 -p tcp -e 1040 -c 0 -i 7 -a 0 -x {0.0 2.0 4 ------- null}
h -t 0.59020096 -s 0 -d 10 -p tcp -e 1040 -c 0 -i 7 -a 0 -x {0.0 2.0 -1 ------- null}
- -t 0.59028624 -s 0 -d 10 -p tcp -e 1040 -c 0 -i 8 -a 0 -x {0.0 2.0 5 ------- null}
h -t 0.59028624 -s 0 -d 10 -p tcp -e 1040 -c 0 -i 8 -a 0 -x {0.0 2.0 -1 ------- null}
- -t 0.59037152 -s 0 -d 10 -p tcp -e 1040 -c 0 -i 9 -a 0 -x {0.0 2.0 6 ------- null}
h -t 0.59037152 -s 0 -d 10 -p tcp -e 1040 -c 0 -i 9 -a 0 -x {0.0 2.0 -1 ------- null}
r -t 0.600204 -s 10 -d 2 -p tcp -e 1040 -c 0 -i 6 -a 0 -x {0.0 2.0 3 ------- null}
h -t 0.600204 -s 2 -d 10 -p ack -e 40 -c 0 -i 10 -a 0 -x {2.0 0.0 3 ------- null}
r -t 0.60028928 -s 10 -d 2 -p tcp -e 1040 -c 0 -i 7 -a 0 -x {0.0 2.0 4 ------- null}
h -t 0.60028928 -s 2 -d 10 -p ack -e 40 -c 0 -i 11 -a 0 -x {2.0 0.0 4 ------- null}
r -t 0.60037456 -s 10 -d 2 -p tcp -e 1040 -c 0 -i 8 -a 0 -x {0.0 2.0 5 ------- null}
h -t 0.60037456 -s 2 -d 10 -p ack -e 40 -c 0 -i 12 -a 0 -x {2.0 0.0 5 ------- null}
r -t 0.60045984 -s 10 -d 2 -p tcp -e 1040 -c 0 -i 9 -a 0 -x {0.0 2.0 6 ------- null}
h -t 0.60045984 -s 2 -d 10 -p ack -e 40 -c 0 -i 13 -a 0 -x {2.0 0.0 6 ------- null}
+ -t 0.610204 -s 2 -d 10 -p ack -e 40 -c 0 -i 10 -a 0 -x {2.0 0.0 3 ------- null}
- -t 0.610204 -s 2 -d 10 -p ack -e 40 -c 0 -i 10 -a 0 -x {2.0 0.0 3 ------- null}
h -t 0.610204 -s 2 -d 10 -p ack -e 40 -c 0 -i 10 -a 0 -x {2.0 0.0 -1 ------- null}
+ -t 0.61028928 -s 2 -d 10 -p ack -e 40 -c 0 -i 11 -a 0 -x {2.0 0.0 4 ------- null}
- -t 0.61028928 -s 2 -d 10 -p ack -e 40 -c 0 -i 11 -a 0 -x {2.0 0.0 4 ------- null}
h -t 0.61028928 -s 2 -d 10 -p ack -e 40 -c 0 -i 11 -a 0 -x {2.0 0.0 -1 ------- null}
+ -t 0.61037456 -s 2 -d 10 -p ack -e 40 -c 0 -i 12 -a 0 -x {2.0 0.0 5 ------- null}
- -t 0.61037456 -s 2 -d 10 -p ack -e 40 -c 0 -i 12 -a 0 -x {2.0 0.0 5 ------- null}
h -t 0.61037456 -s 2 -d 10 -p ack -e 40 -c 0 -i 12 -a 0 -x {2.0 0.0 -1 ------- null}
+ -t 0.61045984 -s 2 -d 10 -p ack -e 40 -c 0 -i 13 -a 0 -x {2.0 0.0 6 ------- null}
- -t 0.61045984 -s 2 -d 10 -p ack -e 40 -c 0 -i 13 -a 0 -x {2.0 0.0 6 ------- null}
h -t 0.61045984 -s 2 -d 10 -p ack -e 40 -c 0 -i 13 -a 0 -x {2.0 0.0 -1 ------- null}
r -t 0.62021312 -s 10 -d 0 -p ack -e 40 -c 0 -i 10 -a 0 -x {2.0 0.0 3 ------- null}
h -t 0.62021312 -s 0 -d 10 -p tcp -e 1040 -c 0 -i 14 -a 0 -x {0.0 2.0 7 ------- null}
h -t 0.62021312 -s 0 -d 10 -p tcp -e 1040 -c 0 -i 15 -a 0 -x {0.0 2.0 8 ------- null}
r -t 0.6202984 -s 10 -d 0 -p ack -e 40 -c 0 -i 11 -a 0 -x {2.0 0.0 4 ------- null}
h -t 0.6202984 -s 0 -d 10 -p tcp -e 1040 -c 0 -i 16 -a 0 -x {0.0 2.0 9 ------- null}
h -t 0.6202984 -s 0 -d 10 -p tcp -e 1040 -c 0 -i 17 -a 0 -x {0.0 2.0 10 ------- null}
r -t 0.62038368 -s 10 -d 0 -p ack -e 40 -c 0 -i 12 -a 0 -x {2.0 0.0 5 ------- null}
h -t 0.62038368 -s 0 -d 10 -p tcp -e 1040 -c 0 -i 18 -a 0 -x {0.0 2.0 11 ------- null}
h -t 0.62038368 -s 0 -d 10 -p tcp -e 1040 -c 0 -i 19 -a 0 -x {0.0 2.0 12 ------- null}
r -t 0.62046896 -s 10 -d 0 -p ack -e 40 -c 0 -i 13 -a 0 -x {2.0 0.0 6 ------- null}
h -t 0.62046896 -s 0 -d 10 -p tcp -e 1040 -c 0 -i 20 -a 0 -x {0.0 2.0 13 ------- null}
h -t 0.62046896 -s 0 -d 10 -p tcp -e 1040 -c 0 -i 21 -a 0 -x {0.0 2.0 14 ------- null}
+ -t 0.63021312 -s 0 -d 10 -p tcp -e 1040 -c 0 -i 14 -a 0 -x {0.0 2.0 7 ------- null}
- -t 0.63021312 -s 0 -d 10 -p tcp -e 1040 -c 0 -i 14 -a 0 -x {0.0 2.0 7 ------- null}
h -t 0.63021312 -s 0 -d 10 -p tcp -e 1040 -c 0 -i 14 -a 0 -x {0.0 2.0 -1 ------- null}
+ -t 0.63021312 -s 0 -d 10 -p tcp -e 1040 -c 0 -i 15 -a 0 -x {0.0 2.0 8 ------- null}
+ -t 0.6302984 -s 0 -d 10 -p tcp -e 1040 -c 0 -i 16 -a 0 -x {0.0 2.0 9 ------- null}
+ -t 0.6302984 -s 0 -d 10 -p tcp -e 1040 -c 0 -i 17 -a 0 -x {0.0 2.0 10 ------- null}
- -t 0.6302984 -s 0 -d 10 -p tcp -e 1040 -c 0 -i 15 -a 0 -x {0.0 2.0 8 ------- null}
h -t 0.6302984 -s 0 -d 10 -p tcp -e 1040 -c 0 -i 15 -a 0 -x {0.0 2.0 -1 ------- null}
+ -t 0.63038368 -s 0 -d 10 -p tcp -e 1040 -c 0 -i 18 -a 0 -x {0.0 2.0 11 ------- null}
+ -t 0.63038368 -s 0 -d 10 -p tcp -e 1040 -c 0 -i 19 -a 0 -x {0.0 2.0 12 ------- null}
- -t 0.63038368 -s 0 -d 10 -p tcp -e 1040 -c 0 -i 16 -a 0 -x {0.0 2.0 9 ------- null}
h -t 0.63038368 -s 0 -d 10 -p tcp -e 1040 -c 0 -i 16 -a 0 -x {0.0 2.0 -1 ------- null}
+ -t 0.63046896 -s 0 -d 10 -p tcp -e 1040 -c 0 -i 20 -a 0 -x {0.0 2.0 13 ------- null}
+ -t 0.63046896 -s 0 -d 10 -p tcp -e 1040 -c 0 -i 21 -a 0 -x {0.0 2.0 14 ------- null}
- -t 0.63046896 -s 0 -d 10 -p tcp -e 1040 -c 0 -i 17 -a 0 -x {0.0 2.0 10 ------- null}
h -t 0.63046896 -s 0 -d 10 -p tcp -e 1040 -c 0 -i 17 -a 0 -x {0.0 2.0 -1 ------- null}
- -t 0.63055424 -s 0 -d 10 -p tcp -e 1040 -c 0 -i 18 -a 0 -x {0.0 2.0 11 ------- null}
h -t 0.63055424 -s 0 -d 10 -p tcp -e 1040 -c 0 -i 18 -a 0 -x {0.0 2.0 -1 ------- null}
- -t 0.63063952 -s 0 -d 10 -p tcp -e 1040 -c 0 -i 19 -a 0 -x {0.0 2.0 12 ------- null}
h -t 0.63063952 -s 0 -d 10 -p tcp -e 1040 -c 0 -i 19 -a 0 -x {0.0 2.0 -1 ------- null}
- -t 0.630724800000001 -s 0 -d 10 -p tcp -e 1040 -c 0 -i 20 -a 0 -x {0.0 2.0 13 ------- null}
h -t 0.630724800000001 -s 0 -d 10 -p tcp -e 1040 -c 0 -i 20 -a 0 -x {0.0 2.0 -1 ------- null}
- -t 0.630810080000001 -s 0 -d 10 -p tcp -e 1040 -c 0 -i 21 -a 0 -x {0.0 2.0 14 ------- null}
h -t 0.630810080000001 -s 0 -d 10 -p tcp -e 1040 -c 0 -i 21 -a 0 -x {0.0 2.0 -1 ------- null}
r -t 0.64030144 -s 10 -d 2 -p tcp -e 1040 -c 0 -i 14 -a 0 -x {0.0 2.0 7 ------- null}
h -t 0.64030144 -s 2 -d 10 -p ack -e 40 -c 0 -i 22 -a 0 -x {2.0 0.0 7 ------- null}
r -t 0.64038672 -s 10 -d 2 -p tcp -e 1040 -c 0 -i 15 -a 0 -x {0.0 2.0 8 ------- null}
h -t 0.64038672 -s 2 -d 10 -p ack -e 40 -c 0 -i 23 -a 0 -x {2.0 0.0 8 ------- null}
r -t 0.640472 -s 10 -d 2 -p tcp -e 1040 -c 0 -i 16 -a 0 -x {0.0 2.0 9 ------- null}
h -t 0.640472 -s 2 -d 10 -p ack -e 40 -c 0 -i 24 -a 0 -x {2.0 0.0 9 ------- null}
r -t 0.64055728 -s 10 -d 2 -p tcp -e 1040 -c 0 -i 17 -a 0 -x {0.0 2.0 10 ------- null}
h -t 0.64055728 -s 2 -d 10 -p ack -e 40 -c 0 -i 25 -a 0 -x {2.0 0.0 10 ------- null}
r -t 0.64064256 -s 10 -d 2 -p tcp -e 1040 -c 0 -i 18 -a 0 -x {0.0 2.0 11 ------- null}
h -t 0.64064256 -s 2 -d 10 -p ack -e 40 -c 0 -i 26 -a 0 -x {2.0 0.0 11 ------- null}
r -t 0.64072784 -s 10 -d 2 -p tcp -e 1040 -c 0 -i 19 -a 0 -x {0.0 2.0 12 ------- null}
h -t 0.64072784 -s 2 -d 10 -p ack -e 40 -c 0 -i 27 -a 0 -x {2.0 0.0 12 ------- null}
r -t 0.640813120000001 -s 10 -d 2 -p tcp -e 1040 -c 0 -i 20 -a 0 -x {0.0 2.0 13 ------- null}
h -t 0.640813120000001 -s 2 -d 10 -p ack -e 40 -c 0 -i 28 -a 0 -x {2.0 0.0 13 ------- null}
r -t 0.640898400000001 -s 10 -d 2 -p tcp -e 1040 -c 0 -i 21 -a 0 -x {0.0 2.0 14 ------- null}
h -t 0.640898400000001 -s 2 -d 10 -p ack -e 40 -c 0 -i 29 -a 0 -x {2.0 0.0 14 ------- null}
+ -t 0.65030144 -s 2 -d 10 -p ack -e 40 -c 0 -i 22 -a 0 -x {2.0 0.0 7 ------- null}
- -t 0.65030144 -s 2 -d 10 -p ack -e 40 -c 0 -i 22 -a 0 -x {2.0 0.0 7 ------- null}
h -t 0.65030144 -s 2 -d 10 -p ack -e 40 -c 0 -i 22 -a 0 -x {2.0 0.0 -1 ------- null}
+ -t 0.65038672 -s 2 -d 10 -p ack -e 40 -c 0 -i 23 -a 0 -x {2.0 0.0 8 ------- null}
- -t 0.65038672 -s 2 -d 10 -p ack -e 40 -c 0 -i 23 -a 0 -x {2.0 0.0 8 ------- null}
h -t 0.65038672 -s 2 -d 10 -p ack -e 40 -c 0 -i 23 -a 0 -x {2.0 0.0 -1 ------- null}
+ -t 0.650472 -s 2 -d 10 -p ack -e 40 -c 0 -i 24 -a 0 -x {2.0 0.0 9 ------- null}
- -t 0.650472 -s 2 -d 10 -p ack -e 40 -c 0 -i 24 -a 0 -x {2.0 0.0 9 ------- null}
h -t 0.650472 -s 2 -d 10 -p ack -e 40 -c 0 -i 24 -a 0 -x {2.0 0.0 -1 ------- null}
+ -t 0.65055728 -s 2 -d 10 -p ack -e 40 -c 0 -i 25 -a 0 -x {2.0 0.0 10 ------- null}
- -t 0.65055728 -s 2 -d 10 -p ack -e 40 -c 0 -i 25 -a 0 -x {2.0 0.0 10 ------- null}
h -t 0.65055728 -s 2 -d 10 -p ack -e 40 -c 0 -i 25 -a 0 -x {2.0 0.0 -1 ------- null}
+ -t 0.65064256 -s 2 -d 10 -p ack -e 40 -c 0 -i 26 -a 0 -x {2.0 0.0 11 ------- null}
- -t 0.65064256 -s 2 -d 10 -p ack -e 40 -c 0 -i 26 -a 0 -x {2.0 0.0 11 ------- null}
h -t 0.65064256 -s 2 -d 10 -p ack -e 40 -c 0 -i 26 -a 0 -x {2.0 0.0 -1 ------- null}
+ -t 0.650727840000001 -s 2 -d 10 -p ack -e 40 -c 0 -i 27 -a 0 -x {2.0 0.0 12 ------- null}
- -t 0.650727840000001 -s 2 -d 10 -p ack -e 40 -c 0 -i 27 -a 0 -x {2.0 0.0 12 ------- null}
h -t 0.650727840000001 -s 2 -d 10 -p ack -e 40 -c 0 -i 27 -a 0 -x {2.0 0.0 -1 ------- null}
+ -t 0.650813120000001 -s 2 -d 10 -p ack -e 40 -c 0 -i 28 -a 0 -x {2.0 0.0 13 ------- null}
- -t 0.650813120000001 -s 2 -d 10 -p ack -e 40 -c 0 -i 28 -a 0 -x {2.0 0.0 13 ------- null}
h -t 0.650813120000001 -s 2 -d 10 -p ack -e 40 -c 0 -i 28 -a 0 -x {2.0 0.0 -1 ------- null}
+ -t 0.650898400000001 -s 2 -d 10 -p ack -e 40 -c 0 -i 29 -a 0 -x {2.0 0.0 14 ------- null}
- -t 0.650898400000001 -s 2 -d 10 -p ack -e 40 -c 0 -i 29 -a 0 -x {2.0 0.0 14 ------- null}
h -t 0.650898400000001 -s 2 -d 10 -p ack -e 40 -c 0 -i 29 -a 0 -x {2.0 0.0 -1 ------- null}
r -t 0.66031056 -s 10 -d 0 -p ack -e 40 -c 0 -i 22 -a 0 -x {2.0 0.0 7 ------- null}
h -t 0.66031056 -s 0 -d 10 -p tcp -e 1040 -c 0 -i 30 -a 0 -x {0.0 2.0 15 ------- null}
h -t 0.66031056 -s 0 -d 10 -p tcp -e 1040 -c 0 -i 31 -a 0 -x {0.0 2.0 16 ------- null}
r -t 0.66039584 -s 10 -d 0 -p ack -e 40 -c 0 -i 23 -a 0 -x {2.0 0.0 8 ------- null}
h -t 0.66039584 -s 0 -d 10 -p tcp -e 1040 -c 0 -i 32 -a 0 -x {0.0 2.0 17 ------- null}
h -t 0.66039584 -s 0 -d 10 -p tcp -e 1040 -c 0 -i 33 -a 0 -x {0.0 2.0 18 ------- null}
r -t 0.66048112 -s 10 -d 0 -p ack -e 40 -c 0 -i 24 -a 0 -x {2.0 0.0 9 ------- null}
h -t 0.66048112 -s 0 -d 10 -p tcp -e 1040 -c 0 -i 34 -a 0 -x {0.0 2.0 19 ------- null}
h -t 0.66048112 -s 0 -d 10 -p tcp -e 1040 -c 0 -i 35 -a 0 -x {0.0 2.0 20 ------- null}
r -t 0.6605664 -s 10 -d 0 -p ack -e 40 -c 0 -i 25 -a 0 -x {2.0 0.0 10 ------- null}
h -t 0.6605664 -s 0 -d 10 -p tcp -e 1040 -c 0 -i 36 -a 0 -x {0.0 2.0 21 ------- null}
h -t 0.6605664 -s 0 -d 10 -p tcp -e 1040 -c 0 -i 37 -a 0 -x {0.0 2.0 22 ------- null}
r -t 0.66065168 -s 10 -d 0 -p ack -e 40 -c 0 -i 26 -a 0 -x {2.0 0.0 11 ------- null}
h -t 0.66065168 -s 0 -d 10 -p tcp -e 1040 -c 0 -i 38 -a 0 -x {0.0 2.0 23 ------- null}
h -t 0.66065168 -s 0 -d 10 -p tcp -e 1040 -c 0 -i 39 -a 0 -x {0.0 2.0 24 ------- null}
r -t 0.66073696 -s 10 -d 0 -p ack -e 40 -c 0 -i 27 -a 0 -x {2.0 0.0 12 ------- null}
h -t 0.66073696 -s 0 -d 10 -p tcp -e 1040 -c 0 -i 40 -a 0 -x {0.0 2.0 25 ------- null}
h -t 0.66073696 -s 0 -d 10 -p tcp -e 1040 -c 0 -i 41 -a 0 -x {0.0 2.0 26 ------- null}
r -t 0.660822240000001 -s 10 -d 0 -p ack -e 40 -c 0 -i 28 -a 0 -x {2.0 0.0 13 ------- null}
h -t 0.660822240000001 -s 0 -d 10 -p tcp -e 1040 -c 0 -i 42 -a 0 -x {0.0 2.0 27 ------- null}
h -t 0.660822240000001 -s 0 -d 10 -p tcp -e 1040 -c 0 -i 43 -a 0 -x {0.0 2.0 28 ------- null}
r -t 0.660907520000001 -s 10 -d 0 -p ack -e 40 -c 0 -i 29 -a 0 -x {2.0 0.0 14 ------- null}
h -t 0.660907520000001 -s 0 -d 10 -p tcp -e 1040 -c 0 -i 44 -a 0 -x {0.0 2.0 29 ------- null}
h -t 0.660907520000001 -s 0 -d 10 -p tcp -e 1040 -c 0 -i 45 -a 0 -x {0.0 2.0 30 ------- null}
+ -t 0.67031056 -s 0 -d 10 -p tcp -e 1040 -c 0 -i 30 -a 0 -x {0.0 2.0 15 ------- null}
- -t 0.67031056 -s 0 -d 10 -p tcp -e 1040 -c 0 -i 30 -a 0 -x {0.0 2.0 15 ------- null}
h -t 0.67031056 -s 0 -d 10 -p tcp -e 1040 -c 0 -i 30 -a 0 -x {0.0 2.0 -1 ------- null}
+ -t 0.67031056 -s 0 -d 10 -p tcp -e 1040 -c 0 -i 31 -a 0 -x {0.0 2.0 16 ------- null}
+ -t 0.67039584 -s 0 -d 10 -p tcp -e 1040 -c 0 -i 32 -a 0 -x {0.0 2.0 17 ------- null}
+ -t 0.67039584 -s 0 -d 10 -p tcp -e 1040 -c 0 -i 33 -a 0 -x {0.0 2.0 18 ------- null}
- -t 0.67039584 -s 0 -d 10 -p tcp -e 1040 -c 0 -i 31 -a 0 -x {0.0 2.0 16 ------- null}
h -t 0.67039584 -s 0 -d 10 -p tcp -e 1040 -c 0 -i 31 -a 0 -x {0.0 2.0 -1 ------- null}
+ -t 0.67048112 -s 0 -d 10 -p tcp -e 1040 -c 0 -i 34 -a 0 -x {0.0 2.0 19 ------- null}
+ -t 0.67048112 -s 0 -d 10 -p tcp -e 1040 -c 0 -i 35 -a 0 -x {0.0 2.0 20 ------- null}
- -t 0.67048112 -s 0 -d 10 -p tcp -e 1040 -c 0 -i 32 -a 0 -x {0.0 2.0 17 ------- null}
h -t 0.67048112 -s 0 -d 10 -p tcp -e 1040 -c 0 -i 32 -a 0 -x {0.0 2.0 -1 ------- null}
+ -t 0.6705664 -s 0 -d 10 -p tcp -e 1040 -c 0 -i 36 -a 0 -x {0.0 2.0 21 ------- null}
+ -t 0.6705664 -s 0 -d 10 -p tcp -e 1040 -c 0 -i 37 -a 0 -x {0.0 2.0 22 ------- null}
- -t 0.6705664 -s 0 -d 10 -p tcp -e 1040 -c 0 -i 33 -a 0 -x {0.0 2.0 18 ------- null}
h -t 0.6705664 -s 0 -d 10 -p tcp -e 1040 -c 0 -i 33 -a 0 -x {0.0 2.0 -1 ------- null}
+ -t 0.67065168 -s 0 -d 10 -p tcp -e 1040 -c 0 -i 38 -a 0 -x {0.0 2.0 23 ------- null}
+ -t 0.67065168 -s 0 -d 10 -p tcp -e 1040 -c 0 -i 39 -a 0 -x {0.0 2.0 24 ------- null}
- -t 0.67065168 -s 0 -d 10 -p tcp -e 1040 -c 0 -i 34 -a 0 -x {0.0 2.0 19 ------- null}
h -t 0.67065168 -s 0 -d 10 -p tcp -e 1040 -c 0 -i 34 -a 0 -x {0.0 2.0 -1 ------- null}
+ -t 0.67073696 -s 0 -d 10 -p tcp -e 1040 -c 0 -i 40 -a 0 -x {0.0 2.0 25 ------- null}
+ -t 0.67073696 -s 0 -d 10 -p tcp -e 1040 -c 0 -i 41 -a 0 -x {0.0 2.0 26 ------- null}
- -t 0.67073696 -s 0 -d 10 -p tcp -e 1040 -c 0 -i 35 -a 0 -x {0.0 2.0 20 ------- null}
h -t 0.67073696 -s 0 -d 10 -p tcp -e 1040 -c 0 -i 35 -a 0 -x {0.0 2.0 -1 ------- null}
+ -t 0.670822240000001 -s 0 -d 10 -p tcp -e 1040 -c 0 -i 42 -a 0 -x {0.0 2.0 27 ------- null}
+ -t 0.670822240000001 -s 0 -d 10 -p tcp -e 1040 -c 0 -i 43 -a 0 -x {0.0 2.0 28 ------- null}
- -t 0.670822240000001 -s 0 -d 10 -p tcp -e 1040 -c 0 -i 36 -a 0 -x {0.0 2.0 21 ------- null}
h -t 0.670822240000001 -s 0 -d 10 -p tcp -e 1040 -c 0 -i 36 -a 0 -x {0.0 2.0 -1 ------- null}
+ -t 0.670907520000001 -s 0 -d 10 -p tcp -e 1040 -c 0 -i 44 -a 0 -x {0.0 2.0 29 ------- null}
+ -t 0.670907520000001 -s 0 -d 10 -p tcp -e 1040 -c 0 -i 45 -a 0 -x {0.0 2.0 30 ------- null}
- -t 0.670907520000001 -s 0 -d 10 -p tcp -e 1040 -c 0 -i 37 -a 0 -x {0.0 2.0 22 ------- null}
h -t 0.670907520000001 -s 0 -d 10 -p tcp -e 1040 -c 0 -i 37 -a 0 -x {0.0 2.0 -1 ------- null}
- -t 0.670992800000001 -s 0 -d 10 -p tcp -e 1040 -c 0 -i 38 -a 0 -x {0.0 2.0 23 ------- null}
h -t 0.670992800000001 -s 0 -d 10 -p tcp -e 1040 -c 0 -i 38 -a 0 -x {0.0 2.0 -1 ------- null}
- -t 0.671078080000001 -s 0 -d 10 -p tcp -e 1040 -c 0 -i 39 -a 0 -x {0.0 2.0 24 ------- null}
h -t 0.671078080000001 -s 0 -d 10 -p tcp -e 1040 -c 0 -i 39 -a 0 -x {0.0 2.0 -1 ------- null}
- -t 0.671163360000001 -s 0 -d 10 -p tcp -e 1040 -c 0 -i 40 -a 0 -x {0.0 2.0 25 ------- null}
h -t 0.671163360000001 -s 0 -d 10 -p tcp -e 1040 -c 0 -i 40 -a 0 -x {0.0 2.0 -1 ------- null}
- -t 0.671248640000001 -s 0 -d 10 -p tcp -e 1040 -c 0 -i 41 -a 0 -x {0.0 2.0 26 ------- null}
h -t 0.671248640000001 -s 0 -d 10 -p tcp -e 1040 -c 0 -i 41 -a 0 -x {0.0 2.0 -1 ------- null}
- -t 0.671333920000001 -s 0 -d 10 -p tcp -e 1040 -c 0 -i 42 -a 0 -x {0.0 2.0 27 ------- null}
h -t 0.671333920000001 -s 0 -d 10 -p tcp -e 1040 -c 0 -i 42 -a 0 -x {0.0 2.0 -1 ------- null}
- -t 0.671419200000001 -s 0 -d 10 -p tcp -e 1040 -c 0 -i 43 -a 0 -x {0.0 2.0 28 ------- null}
h -t 0.671419200000001 -s 0 -d 10 -p tcp -e 1040 -c 0 -i 43 -a 0 -x {0.0 2.0 -1 ------- null}
- -t 0.671504480000001 -s 0 -d 10 -p tcp -e 1040 -c 0 -i 44 -a 0 -x {0.0 2.0 29 ------- null}
h -t 0.671504480000001 -s 0 -d 10 -p tcp -e 1040 -c 0 -i 44 -a 0 -x {0.0 2.0 -1 ------- null}
- -t 0.671589760000001 -s 0 -d 10 -p tcp -e 1040 -c 0 -i 45 -a 0 -x {0.0 2.0 30 ------- null}
h -t 0.671589760000001 -s 0 -d 10 -p tcp -e 1040 -c 0 -i 45 -a 0 -x {0.0 2.0 -1 ------- null}
r -t 0.68039888 -s 10 -d 2 -p tcp -e 1040 -c 0 -i 30 -a 0 -x {0.0 2.0 15 ------- null}
h -t 0.68039888 -s 2 -d 10 -p ack -e 40 -c 0 -i 46 -a 0 -x {2.0 0.0 15 ------- null}
r -t 0.68048416 -s 10 -d 2 -p tcp -e 1040 -c 0 -i 31 -a 0 -x {0.0 2.0 16 ------- null}
h -t 0.68048416 -s 2 -d 10 -p ack -e 40 -c 0 -i 47 -a 0 -x {2.0 0.0 16 ------- null}
r -t 0.68056944 -s 10 -d 2 -p tcp -e 1040 -c 0 -i 32 -a 0 -x {0.0 2.0 17 ------- null}
h -t 0.68056944 -s 2 -d 10 -p ack -e 40 -c 0 -i 48 -a 0 -x {2.0 0.0 17 ------- null}
r -t 0.68065472 -s 10 -d 2 -p tcp -e 1040 -c 0 -i 33 -a 0 -x {0.0 2.0 18 ------- null}
h -t 0.68065472 -s 2 -d 10 -p ack -e 40 -c 0 -i 49 -a 0 -x {2.0 0.0 18 ------- null}
r -t 0.68074 -s 10 -d 2 -p tcp -e 1040 -c 0 -i 34 -a 0 -x {0.0 2.0 19 ------- null}
h -t 0.68074 -s 2 -d 10 -p ack -e 40 -c 0 -i 50 -a 0 -x {2.0 0.0 19 ------- null}
r -t 0.680825280000001 -s 10 -d 2 -p tcp -e 1040 -c 0 -i 35 -a 0 -x {0.0 2.0 20 ------- null}
h -t 0.680825280000001 -s 2 -d 10 -p ack -e 40 -c 0 -i 51 -a 0 -x {2.0 0.0 20 ------- null}
r -t 0.680910560000001 -s 10 -d 2 -p tcp -e 1040 -c 0 -i 36 -a 0 -x {0.0 2.0 21 ------- null}
h -t 0.680910560000001 -s 2 -d 10 -p ack -e 40 -c 0 -i 52 -a 0 -x {2.0 0.0 21 ------- null}
r -t 0.680995840000001 -s 10 -d 2 -p tcp -e 1040 -c 0 -i 37 -a 0 -x {0.0 2.0 22 ------- null}
h -t 0.680995840000001 -s 2 -d 10 -p ack -e 40 -c 0 -i 53 -a 0 -x {2.0 0.0 22 ------- null}
r -t 0.681081120000001 -s 10 -d 2 -p tcp -e 1040 -c 0 -i 38 -a 0 -x {0.0 2.0 23 ------- null}
h -t 0.681081120000001 -s 2 -d 10 -p ack -e 40 -c 0 -i 54 -a 0 -x {2.0 0.0 23 ------- null}
r -t 0.681166400000001 -s 10 -d 2 -p tcp -e 1040 -c 0 -i 39 -a 0 -x {0.0 2.0 24 ------- null}
h -t 0.681166400000001 -s 2 -d 10 -p ack -e 40 -c 0 -i 55 -a 0 -x {2.0 0.0 24 ------- null}
r -t 0.681251680000001 -s 10 -d 2 -p tcp -e 1040 -c 0 -i 40 -a 0 -x {0.0 2.0 25 ------- null}
h -t 0.681251680000001 -s 2 -d 10 -p ack -e 40 -c 0 -i 56 -a 0 -x {2.0 0.0 25 ------- null}
r -t 0.681336960000001 -s 10 -d 2 -p tcp -e 1040 -c 0 -i 41 -a 0 -x {0.0 2.0 26 ------- null}
h -t 0.681336960000001 -s 2 -d 10 -p ack -e 40 -c 0 -i 57 -a 0 -x {2.0 0.0 26 ------- null}
r -t 0.681422240000001 -s 10 -d 2 -p tcp -e 1040 -c 0 -i 42 -a 0 -x {0.0 2.0 27 ------- null}
h -t 0.681422240000001 -s 2 -d 10 -p ack -e 40 -c 0 -i 58 -a 0 -x {2.0 0.0 27 ------- null}
r -t 0.681507520000001 -s 10 -d 2 -p tcp -e 1040 -c 0 -i 43 -a 0 -x {0.0 2.0 28 ------- null}
h -t 0.681507520000001 -s 2 -d 10 -p ack -e 40 -c 0 -i 59 -a 0 -x {2.0 0.0 28 ------- null}
r -t 0.681592800000001 -s 10 -d 2 -p tcp -e 1040 -c 0 -i 44 -a 0 -x {0.0 2.0 29 ------- null}
h -t 0.681592800000001 -s 2 -d 10 -p ack -e 40 -c 0 -i 60 -a 0 -x {2.0 0.0 29 ------- null}
r -t 0.681678080000001 -s 10 -d 2 -p tcp -e 1040 -c 0 -i 45 -a 0 -x {0.0 2.0 30 ------- null}
h -t 0.681678080000001 -s 2 -d 10 -p ack -e 40 -c 0 -i 61 -a 0 -x {2.0 0.0 30 ------- null}
+ -t 0.69039888 -s 2 -d 10 -p ack -e 40 -c 0 -i 46 -a 0 -x {2.0 0.0 15 ------- null}
- -t 0.69039888 -s 2 -d 10 -p ack -e 40 -c 0 -i 46 -a 0 -x {2.0 0.0 15 ------- null}
h -t 0.69039888 -s 2 -d 10 -p ack -e 40 -c 0 -i 46 -a 0 -x {2.0 0.0 -1 ------- null}
+ -t 0.69048416 -s 2 -d 10 -p ack -e 40 -c 0 -i 47 -a 0 -x {2.0 0.0 16 ------- null}
- -t 0.69048416 -s 2 -d 10 -p ack -e 40 -c 0 -i 47 -a 0 -x {2.0 0.0 16 ------- null}
h -t 0.69048416 -s 2 -d 10 -p ack -e 40 -c 0 -i 47 -a 0 -x {2.0 0.0 -1 ------- null}
+ -t 0.69056944 -s 2 -d 10 -p ack -e 40 -c 0 -i 48 -a 0 -x {2.0 0.0 17 ------- null}
- -t 0.69056944 -s 2 -d 10 -p ack -e 40 -c 0 -i 48 -a 0 -x {2.0 0.0 17 ------- null}
h -t 0.69056944 -s 2 -d 10 -p ack -e 40 -c 0 -i 48 -a 0 -x {2.0 0.0 -1 ------- null}
+ -t 0.69065472 -s 2 -d 10 -p ack -e 40 -c 0 -i 49 -a 0 -x {2.0 0.0 18 ------- null}
- -t 0.69065472 -s 2 -d 10 -p ack -e 40 -c 0 -i 49 -a 0 -x {2.0 0.0 18 ------- null}
h -t 0.69065472 -s 2 -d 10 -p ack -e 40 -c 0 -i 49 -a 0 -x {2.0 0.0 -1 ------- null}
+ -t 0.69074 -s 2 -d 10 -p ack -e 40 -c 0 -i 50 -a 0 -x {2.0 0.0 19 ------- null}
- -t 0.69074 -s 2 -d 10 -p ack -e 40 -c 0 -i 50 -a 0 -x {2.0 0.0 19 ------- null}
h -t 0.69074 -s 2 -d 10 -p ack -e 40 -c 0 -i 50 -a 0 -x {2.0 0.0 -1 ------- null}
+ -t 0.690825280000001 -s 2 -d 10 -p ack -e 40 -c 0 -i 51 -a 0 -x {2.0 0.0 20 ------- null}
- -t 0.690825280000001 -s 2 -d 10 -p ack -e 40 -c 0 -i 51 -a 0 -x {2.0 0.0 20 ------- null}
h -t 0.690825280000001 -s 2 -d 10 -p ack -e 40 -c 0 -i 51 -a 0 -x {2.0 0.0 -1 ------- null}
+ -t 0.690910560000001 -s 2 -d 10 -p ack -e 40 -c 0 -i 52 -a 0 -x {2.0 0.0 21 ------- null}
- -t 0.690910560000001 -s 2 -d 10 -p ack -e 40 -c 0 -i 52 -a 0 -x {2.0 0.0 21 ------- null}
h -t 0.690910560000001 -s 2 -d 10 -p ack -e 40 -c 0 -i 52 -a 0 -x {2.0 0.0 -1 ------- null}
+ -t 0.690995840000001 -s 2 -d 10 -p ack -e 40 -c 0 -i 53 -a 0 -x {2.0 0.0 22 ------- null}
- -t 0.690995840000001 -s 2 -d 10 -p ack -e 40 -c 0 -i 53 -a 0 -x {2.0 0.0 22 ------- null}
h -t 0.690995840000001 -s 2 -d 10 -p ack -e 40 -c 0 -i 53 -a 0 -x {2.0 0.0 -1 ------- null}
+ -t 0.691081120000001 -s 2 -d 10 -p ack -e 40 -c 0 -i 54 -a 0 -x {2.0 0.0 23 ------- null}
- -t 0.691081120000001 -s 2 -d 10 -p ack -e 40 -c 0 -i 54 -a 0 -x {2.0 0.0 23 ------- null}
h -t 0.691081120000001 -s 2 -d 10 -p ack -e 40 -c 0 -i 54 -a 0 -x {2.0 0.0 -1 ------- null}
+ -t 0.691166400000001 -s 2 -d 10 -p ack -e 40 -c 0 -i 55 -a 0 -x {2.0 0.0 24 ------- null}
- -t 0.691166400000001 -s 2 -d 10 -p ack -e 40 -c 0 -i 55 -a 0 -x {2.0 0.0 24 ------- null}
h -t 0.691166400000001 -s 2 -d 10 -p ack -e 40 -c 0 -i 55 -a 0 -x {2.0 0.0 -1 ------- null}
+ -t 0.691251680000001 -s 2 -d 10 -p ack -e 40 -c 0 -i 56 -a 0 -x {2.0 0.0 25 ------- null}
- -t 0.691251680000001 -s 2 -d 10 -p ack -e 40 -c 0 -i 56 -a 0 -x {2.0 0.0 25 ------- null}
h -t 0.691251680000001 -s 2 -d 10 -p ack -e 40 -c 0 -i 56 -a 0 -x {2.0 0.0 -1 ------- null}
+ -t 0.691336960000001 -s 2 -d 10 -p ack -e 40 -c 0 -i 57 -a 0 -x {2.0 0.0 26 ------- null}
- -t 0.691336960000001 -s 2 -d 10 -p ack -e 40 -c 0 -i 57 -a 0 -x {2.0 0.0 26 ------- null}
h -t 0.691336960000001 -s 2 -d 10 -p ack -e 40 -c 0 -i 57 -a 0 -x {2.0 0.0 -1 ------- null}
+ -t 0.691422240000001 -s 2 -d 10 -p ack -e 40 -c 0 -i 58 -a 0 -x {2.0 0.0 27 ------- null}
- -t 0.691422240000001 -s 2 -d 10 -p ack -e 40 -c 0 -i 58 -a 0 -x {2.0 0.0 27 ------- null}
h -t 0.691422240000001 -s 2 -d 10 -p ack -e 40 -c 0 -i 58 -a 0 -x {2.0 0.0 -1 ------- null}
+ -t 0.691507520000001 -s 2 -d 10 -p ack -e 40 -c 0 -i 59 -a 0 -x {2.0 0.0 28 ------- null}
- -t 0.691507520000001 -s 2 -d 10 -p ack -e 40 -c 0 -i 59 -a 0 -x {2.0 0.0 28 ------- null}
h -t 0.691507520000001 -s 2 -d 10 -p ack -e 40 -c 0 -i 59 -a 0 -x {2.0 0.0 -1 ------- null}
+ -t 0.691592800000001 -s 2 -d 10 -p ack -e 40 -c 0 -i 60 -a 0 -x {2.0 0.0 29 ------- null}
- -t 0.691592800000001 -s 2 -d 10 -p ack -e 40 -c 0 -i 60 -a 0 -x {2.0 0.0 29 ------- null}
h -t 0.691592800000001 -s 2 -d 10 -p ack -e 40 -c 0 -i 60 -a 0 -x {2.0 0.0 -1 ------- null}
+ -t 0.691678080000001 -s 2 -d 10 -p ack -e 40 -c 0 -i 61 -a 0 -x {2.0 0.0 30 ------- null}
- -t 0.691678080000001 -s 2 -d 10 -p ack -e 40 -c 0 -i 61 -a 0 -x {2.0 0.0 30 ------- null}
h -t 0.691678080000001 -s 2 -d 10 -p ack -e 40 -c 0 -i 61 -a 0 -x {2.0 0.0 -1 ------- null}
r -t 0.700408 -s 10 -d 0 -p ack -e 40 -c 0 -i 46 -a 0 -x {2.0 0.0 15 ------- null}
h -t 0.700408 -s 0 -d 10 -p tcp -e 1040 -c 0 -i 62 -a 0 -x {0.0 2.0 31 ------- null}
h -t 0.700408 -s 0 -d 10 -p tcp -e 1040 -c 0 -i 63 -a 0 -x {0.0 2.0 32 ------- null}
r -t 0.70049328 -s 10 -d 0 -p ack -e 40 -c 0 -i 47 -a 0 -x {2.0 0.0 16 ------- null}
h -t 0.70049328 -s 0 -d 10 -p tcp -e 1040 -c 0 -i 64 -a 0 -x {0.0 2.0 33 ------- null}
h -t 0.70049328 -s 0 -d 10 -p tcp -e 1040 -c 0 -i 65 -a 0 -x {0.0 2.0 34 ------- null}
r -t 0.70057856 -s 10 -d 0 -p ack -e 40 -c 0 -i 48 -a 0 -x {2.0 0.0 17 ------- null}
h -t 0.70057856 -s 0 -d 10 -p tcp -e 1040 -c 0 -i 66 -a 0 -x {0.0 2.0 35 ------- null}
h -t 0.70057856 -s 0 -d 10 -p tcp -e 1040 -c 0 -i 67 -a 0 -x {0.0 2.0 36 ------- null}
r -t 0.70066384 -s 10 -d 0 -p ack -e 40 -c 0 -i 49 -a 0 -x {2.0 0.0 18 ------- null}
h -t 0.70066384 -s 0 -d 10 -p tcp -e 1040 -c 0 -i 68 -a 0 -x {0.0 2.0 37 ------- null}
h -t 0.70066384 -s 0 -d 10 -p tcp -e 1040 -c 0 -i 69 -a 0 -x {0.0 2.0 38 ------- null}
r -t 0.70074912 -s 10 -d 0 -p ack -e 40 -c 0 -i 50 -a 0 -x {2.0 0.0 19 ------- null}
h -t 0.70074912 -s 0 -d 10 -p tcp -e 1040 -c 0 -i 70 -a 0 -x {0.0 2.0 39 ------- null}
r -t 0.700834400000001 -s 10 -d 0 -p ack -e 40 -c 0 -i 51 -a 0 -x {2.0 0.0 20 ------- null}
h -t 0.700834400000001 -s 0 -d 10 -p tcp -e 1040 -c 0 -i 71 -a 0 -x {0.0 2.0 40 ------- null}
r -t 0.700919680000001 -s 10 -d 0 -p ack -e 40 -c 0 -i 52 -a 0 -x {2.0 0.0 21 ------- null}
h -t 0.700919680000001 -s 0 -d 10 -p tcp -e 1040 -c 0 -i 72 -a 0 -x {0.0 2.0 41 ------- null}
r -t 0.701004960000001 -s 10 -d 0 -p ack -e 40 -c 0 -i 53 -a 0 -x {2.0 0.0 22 ------- null}
h -t 0.701004960000001 -s 0 -d 10 -p tcp -e 1040 -c 0 -i 73 -a 0 -x {0.0 2.0 42 ------- null}
r -t 0.701090240000001 -s 10 -d 0 -p ack -e 40 -c 0 -i 54 -a 0 -x {2.0 0.0 23 ------- null}
h -t 0.701090240000001 -s 0 -d 10 -p tcp -e 1040 -c 0 -i 74 -a 0 -x {0.0 2.0 43 ------- null}
r -t 0.701175520000001 -s 10 -d 0 -p ack -e 40 -c 0 -i 55 -a 0 -x {2.0 0.0 24 ------- null}
h -t 0.701175520000001 -s 0 -d 10 -p tcp -e 1040 -c 0 -i 75 -a 0 -x {0.0 2.0 44 ------- null}
r -t 0.701260800000001 -s 10 -d 0 -p ack -e 40 -c 0 -i 56 -a 0 -x {2.0 0.0 25 ------- null}
h -t 0.701260800000001 -s 0 -d 10 -p tcp -e 1040 -c 0 -i 76 -a 0 -x {0.0 2.0 45 ------- null}
r -t 0.701346080000001 -s 10 -d 0 -p ack -e 40 -c 0 -i 57 -a 0 -x {2.0 0.0 26 ------- null}
h -t 0.701346080000001 -s 0 -d 10 -p tcp -e 1040 -c 0 -i 77 -a 0 -x {0.0 2.0 46 ------- null}
r -t 0.701431360000001 -s 10 -d 0 -p ack -e 40 -c 0 -i 58 -a 0 -x {2.0 0.0 27 ------- null}
h -t 0.701431360000001 -s 0 -d 10 -p tcp -e 1040 -c 0 -i 78 -a 0 -x {0.0 2.0 47 ------- null}
r -t 0.701516640000001 -s 10 -d 0 -p ack -e 40 -c 0 -i 59 -a 0 -x {2.0 0.0 28 ------- null}
h -t 0.701516640000001 -s 0 -d 10 -p tcp -e 1040 -c 0 -i 79 -a 0 -x {0.0 2.0 48 ------- null}
r -t 0.701601920000001 -s 10 -d 0 -p ack -e 40 -c 0 -i 60 -a 0 -x {2.0 0.0 29 ------- null}
h -t 0.701601920000001 -s 0 -d 10 -p tcp -e 1040 -c 0 -i 80 -a 0 -x {0.0 2.0 49 ------- null}
r -t 0.701687200000001 -s 10 -d 0 -p ack -e 40 -c 0 -i 61 -a 0 -x {2.0 0.0 30 ------- null}
h -t 0.701687200000001 -s 0 -d 10 -p tcp -e 1040 -c 0 -i 81 -a 0 -x {0.0 2.0 50 ------- null}