h 0.5 0 10 tcp 40 ------- 0 0.0 3.0 0 0
+ 0.51 0 10 tcp 40 ------- 0 0.0 3.0 0 0
- 0.51 0 10 tcp 40 ------- 0 0.0 3.0 0 0
r 0.520009 10 3 tcp 40 ------- 0 0.0 3.0 0 0
h 0.520009 3 10 ack 40 ------- 0 3.0 0.0 0 1
+ 0.530009 3 10 ack 40 ------- 0 3.0 0.0 0 1
- 0.530009 3 10 ack 40 ------- 0 3.0 0.0 0 1
r 0.540018 10 0 ack 40 ------- 0 3.0 0.0 0 1
h 0.540018 0 10 tcp 1040 ------- 0 0.0 3.0 1 2
h 0.540018 0 10 tcp 1040 ------- 0 0.0 3.0 2 3
+ 0.550018 0 10 tcp 1040 ------- 0 0.0 3.0 1 2
- 0.550018 0 10 tcp 1040 ------- 0 0.0 3.0 1 2
+ 0.550018 0 10 tcp 1040 ------- 0 0.0 3.0 2 3
- 0.550104 0 10 tcp 1040 ------- 0 0.0 3.0 2 3
r 0.560107 10 3 tcp 1040 ------- 0 0.0 3.0 1 2
h 0.560107 3 10 ack 40 ------- 0 3.0 0.0 1 4
r 0.560192 10 3 tcp 1040 ------- 0 0.0 3.0 2 3
h 0.560192 3 10 ack 40 ------- 0 3.0 0.0 2 5
+ 0.570107 3 10 ack 40 ------- 0 3.0 0.0 1 4
- 0.570107 3 10 ack 40 ------- 0 3.0 0.0 1 4
+ 0.570192 3 10 ack 40 ------- 0 3.0 0.0 2 5
- 0.570192 3 10 ack 40 ------- 0 3.0 0.0 2 5
r 0.580116 10 0 ack 40 ------- 0 3.0 0.0 1 4
h 0.580116 0 10 tcp 1040 ------- 0 0.0 3.0 3 6
h 0.580116 0 10 tcp 1040 ------- 0 0.0 3.0 4 7
r 0.580201 10 0 ack 40 ------- 0 3.0 0.0 2 5
h 0.580201 0 10 tcp 1040 ------- 0 0.0 3.0 5 8
h 0.580201 0 10 tcp 1040 ------- 0 0.0 3.0 6 9
+ 0.590116 0 10 tcp 1040 ------- 0 0.0 3.0 3 6
- 0.590116 0 10 tcp 1040 ------- 0 0.0 3.0 3 6
+ 0.590116 0 10 tcp 1040 ------- 0 0.0 3.0 4 7
+ 0.590201 0 10 tcp 1040 ------- 0 0.0 3.0 5 8
+ 0.590201 0 10 tcp 1040 ------- 0 0.0 3.0 6 9
- 0.590201 0 10 tcp 1040 ------- 0 0.0 3.0 4 7
- 0.590286 0 10 tcp 1040 ------- 0 0.0 3.0 5 8
- 0.590372 0 10 tcp 1040 ------- 0 0.0 3.0 6 9
r 0.600204 10 3 tcp 1040 ------- 0 0.0 3.0 3 6
h 0.600204 3 10 ack 40 ------- 0 3.0 0.0 3 10
r 0.600289 10 3 tcp 1040 ------- 0 0.0 3.0 4 7
h 0.600289 3 10 ack 40 ------- 0 3.0 0.0 4 11
r 0.600375 10 3 tcp 1040 ------- 0 0.0 3.0 5 8
h 0.600375 3 10 ack 40 ------- 0 3.0 0.0 5 12
r 0.60046 10 3 tcp 1040 ------- 0 0.0 3.0 6 9
h 0.60046 3 10 ack 40 ------- 0 3.0 0.0 6 13
+ 0.610204 3 10 ack 40 ------- 0 3.0 0.0 3 10
- 0.610204 3 10 ack 40 ------- 0 3.0 0.0 3 10
+ 0.610289 3 10 ack 40 ------- 0 3.0 0.0 4 11
- 0.610289 3 10 ack 40 ------- 0 3.0 0.0 4 11
+ 0.610375 3 10 ack 40 ------- 0 3.0 0.0 5 12
- 0.610375 3 10 ack 40 ------- 0 3.0 0.0 5 12
+ 0.61046 3 10 ack 40 ------- 0 3.0 0.0 6 13
- 0.61046 3 10 ack 40 ------- 0 3.0 0.0 6 13
r 0.620213 10 0 ack 40 ------- 0 3.0 0.0 3 10
h 0.620213 0 10 tcp 1040 ------- 0 0.0 3.0 7 14
h 0.620213 0 10 tcp 1040 ------- 0 0.0 3.0 8 15
r 0.620298 10 0 ack 40 ------- 0 3.0 0.0 4 11
h 0.620298 0 10 tcp 1040 ------- 0 0.0 3.0 9 16
h 0.620298 0 10 tcp 1040 ------- 0 0.0 3.0 10 17
r 0.620384 10 0 ack 40 ------- 0 3.0 0.0 5 12
h 0.620384 0 10 tcp 1040 ------- 0 0.0 3.0 11 18
h 0.620384 0 10 tcp 1040 ------- 0 0.0 3.0 12 19
r 0.620469 10 0 ack 40 ------- 0 3.0 0.0 6 13
h 0.620469 0 10 tcp 1040 ------- 0 0.0 3.0 13 20
h 0.620469 0 10 tcp 1040 ------- 0 0.0 3.0 14 21
+ 0.630213 0 10 tcp 1040 ------- 0 0.0 3.0 7 14
- 0.630213 0 10 tcp 1040 ------- 0 0.0 3.0 7 14
+ 0.630213 0 10 tcp 1040 ------- 0 0.0 3.0 8 15
+ 0.630298 0 10 tcp 1040 ------- 0 0.0 3.0 9 16
+ 0.630298 0 10 tcp 1040 ------- 0 0.0 3.0 10 17
- 0.630298 0 10 tcp 1040 ------- 0 0.0 3.0 8 15
+ 0.630384 0 10 tcp 1040 ------- 0 0.0 3.0 11 18
+ 0.630384 0 10 tcp 1040 ------- 0 0.0 3.0 12 19
- 0.630384 0 10 tcp 1040 ------- 0 0.0 3.0 9 16
+ 0.630469 0 10 tcp 1040 ------- 0 0.0 3.0 13 20
+ 0.630469 0 10 tcp 1040 ------- 0 0.0 3.0 14 21
- 0.630469 0 10 tcp 1040 ------- 0 0.0 3.0 10 17
- 0.630554 0 10 tcp 1040 ------- 0 0.0 3.0 11 18
- 0.63064 0 10 tcp 1040 ------- 0 0.0 3.0 12 19
- 0.630725 0 10 tcp 1040 ------- 0 0.0 3.0 13 20
- 0.63081 0 10 tcp 1040 ------- 0 0.0 3.0 14 21
r 0.640301 10 3 tcp 1040 ------- 0 0.0 3.0 7 14
h 0.640301 3 10 ack 40 ------- 0 3.0 0.0 7 22
r 0.640387 10 3 tcp 1040 ------- 0 0.0 3.0 8 15
h 0.640387 3 10 ack 40 ------- 0 3.0 0.0 8 23
r 0.640472 10 3 tcp 1040 ------- 0 0.0 3.0 9 16
h 0.640472 3 10 ack 40 ------- 0 3.0 0.0 9 24
r 0.640557 10 3 tcp 1040 ------- 0 0.0 3.0 10 17
h 0.640557 3 10 ack 40 ------- 0 3.0 0.0 10 25
r 0.640643 10 3 tcp 1040 ------- 0 0.0 3.0 11 18
h 0.640643 3 10 ack 40 ------- 0 3.0 0.0 11 26
r 0.640728 10 3 tcp 1040 ------- 0 0.0 3.0 12 19
h 0.640728 3 10 ack 40 ------- 0 3.0 0.0 12 27
r 0.640813 10 3 tcp 1040 ------- 0 0.0 3.0 13 20
h 0.640813 3 10 ack 40 ------- 0 3.0 0.0 13 28
r 0.640898 10 3 tcp 1040 ------- 0 0.0 3.0 14 21
h 0.640898 3 10 ack 40 ------- 0 3.0 0.0 14 29
+ 0.650301 3 10 ack 40 ------- 0 3.0 0.0 7 22
- 0.650301 3 10 ack 40 ------- 0 3.0 0.0 7 22
+ 0.650387 3 10 ack 40 ------- 0 3.0 0.0 8 23
- 0.650387 3 10 ack 40 ------- 0 3.0 0.0 8 23
+ 0.650472 3 10 ack 40 ------- 0 3.0 0.0 9 24
- 0.650472 3 10 ack 40 ------- 0 3.0 0.0 9 24
+ 0.650557 3 10 ack 40 ------- 0 3.0 0.0 10 25
- 0.650557 3 10 ack 40 ------- 0 3.0 0.0 10 25
+ 0.650643 3 10 ack 40 ------- 0 3.0 0.0 11 26
- 0.650643 3 10 ack 40 ------- 0 3.0 0.0 11 26
+ 0.650728 3 10 ack 40 ------- 0 3.0 0.0 12 27
- 0.650728 3 10 ack 40 ------- 0 3.0 0.0 12 27
+ 0.650813 3 10 ack 40 ------- 0 3.0 0.0 13 28
- 0.650813 3 10 ack 40 ------- 0 3.0 0.0 13 28
+ 0.650898 3 10 ack 40 ------- 0 3.0 0.0 14 29
- 0.650898 3 10 ack 40 ------- 0 3.0 0.0 14 29
r 0.660311 10 0 ack 40 ------- 0 3.0 0.0 7 22
h 0.660311 0 10 tcp 1040 ------- 0 0.0 3.0 15 30
h 0.660311 0 10 tcp 1040 ------- 0 0.0 3.0 16 31
r 0.660396 10 0 ack 40 ------- 0 3.0 0.0 8 23
h 0.660396 0 10 tcp 1040 ------- 0 0.0 3.0 17 32
h 0.660396 0 10 tcp 1040 ------- 0 0.0 3.0 18 33
r 0.660481 10 0 ack 40 ------- 0 3.0 0.0 9 24
h 0.660481 0 10 tcp 1040 ------- 0 0.0 3.0 19 34
h 0.660481 0 10 tcp 1040 ------- 0 0.0 3.0 20 35
r 0.660566 10 0 ack 40 ------- 0 3.0 0.0 10 25
h 0.660566 0 10 tcp 1040 ------- 0 0.0 3.0 21 36
h 0.660566 0 10 tcp 1040 ------- 0 0.0 3.0 22 37
r 0.660652 10 0 ack 40 ------- 0 3.0 0.0 11 26
h 0.660652 0 10 tcp 1040 ------- 0 0.0 3.0 23 38
h 0.660652 0 10 tcp 1040 ------- 0 0.0 3.0 24 39
r 0.660737 10 0 ack 40 ------- 0 3.0 0.0 12 27
h 0.660737 0 10 tcp 1040 ------- 0 0.0 3.0 25 40
h 0.660737 0 10 tcp 1040 ------- 0 0.0 3.0 26 41
r 0.660822 10 0 ack 40 ------- 0 3.0 0.0 13 28
h 0.660822 0 10 tcp 1040 ------- 0 0.0 3.0 27 42
h 0.660822 0 10 tcp 1040 ------- 0 0.0 3.0 28 43
r 0.660908 10 0 ack 40 ------- 0 3.0 0.0 14 29
h 0.660908 0 10 tcp 1040 ------- 0 0.0 3.0 29 44
h 0.660908 0 10 tcp 1040 ------- 0 0.0 3.0 30 45
+ 0.670311 0 10 tcp 1040 ------- 0 0.0 3.0 15 30
- 0.670311 0 10 tcp 1040 ------- 0 0.0 3.0 15 30
+ 0.670311 0 10 tcp 1040 ------- 0 0.0 3.0 16 31
+ 0.670396 0 10 tcp 1040 ------- 0 0.0 3.0 17 32
+ 0.670396 0 10 tcp 1040 ------- 0 0.0 3.0 18 33
- 0.670396 0 10 tcp 1040 ------- 0 0.0 3.0 16 31
+ 0.670481 0 10 tcp 1040 ------- 0 0.0 3.0 19 34
+ 0.670481 0 10 tcp 1040 ------- 0 0.0 3.0 20 35
- 0.670481 0 10 tcp 1040 ------- 0 0.0 3.0 17 32
+ 0.670566 0 10 tcp 1040 ------- 0 0.0 3.0 21 36
+ 0.670566 0 10 tcp 1040 ------- 0 0.0 3.0 22 37
- 0.670566 0 10 tcp 1040 ------- 0 0.0 3.0 18 33
+ 0.670652 0 10 tcp 1040 ------- 0 0.0 3.0 23 38
+ 0.670652 0 10 tcp 1040 ------- 0 0.0 3.0 24 39
- 0.670652 0 10 tcp 1040 ------- 0 0.0 3.0 19 34
+ 0.670737 0 10 tcp 1040 ------- 0 0.0 3.0 25 40
+ 0.670737 0 10 tcp 1040 ------- 0 0.0 3.0 26 41
- 0.670737 0 10 tcp 1040 ------- 0 0.0 3.0 20 35
+ 0.670822 0 10 tcp 1040 ------- 0 0.0 3.0 27 42
+ 0.670822 0 10 tcp 1040 ------- 0 0.0 3.0 28 43
- 0.670822 0 10 tcp 1040 ------- 0 0.0 3.0 21 36
+ 0.670908 0 10 tcp 1040 ------- 0 0.0 3.0 29 44
+ 0.670908 0 10 tcp 1040 ------- 0 0.0 3.0 30 45
- 0.670908 0 10 tcp 1040 ------- 0 0.0 3.0 22 37
- 0.670993 0 10 tcp 1040 ------- 0 0.0 3.0 23 38
- 0.671078 0 10 tcp 1040 ------- 0 0.0 3.0 24 39
- 0.671163 0 10 tcp 1040 ------- 0 0.0 3.0 25 40
- 0.671249 0 10 tcp 1040 ------- 0 0.0 3.0 26 41
- 0.671334 0 10 tcp 1040 ------- 0 0.0 3.0 27 42
- 0.671419 0 10 tcp 1040 ------- 0 0.0 3.0 28 43
- 0.671504 0 10 tcp 1040 ------- 0 0.0 3.0 29 44
- 0.67159 0 10 tcp 1040 ------- 0 0.0 3.0 30 45
r 0.680399 10 3 tcp 1040 ------- 0 0.0 3.0 15 30
h 0.680399 3 10 ack 40 ------- 0 3.0 0.0 15 46
r 0.680484 10 3 tcp 1040 ------- 0 0.0 3.0 16 31
h 0.680484 3 10 ack 40 ------- 0 3.0 0.0 16 47
r 0.680569 10 3 tcp 1040 ------- 0 0.0 3.0 17 32
h 0.680569 3 10 ack 40 ------- 0 3.0 0.0 17 48
r 0.680655 10 3 tcp 1040 ------- 0 0.0 3.0 18 33
h 0.680655 3 10 ack 40 ------- 0 3.0 0.0 18 49
r 0.68074 10 3 tcp 1040 ------- 0 0.0 3.0 19 34
h 0.68074 3 10 ack 40 ------- 0 3.0 0.0 19 50
r 0.680825 10 3 tcp 1040 ------- 0 0.0 3.0 20 35
h 0.680825 3 10 ack 40 ------- 0 3.0 0.0 20 51
r 0.680911 10 3 tcp 1040 ------- 0 0.0 3.0 21 36
h 0.680911 3 10 ack 40 ------- 0 3.0 0.0 21 52
r 0.680996 10 3 tcp 1040 ------- 0 0.0 3.0 22 37
h 0.680996 3 10 ack 40 ------- 0 3.0 0.0 22 53
r 0.681081 10 3 tcp 1040 ------- 0 0.0 3.0 23 38
h 0.681081 3 10 ack 40 ------- 0 3.0 0.0 23 54
r 0.681166 10 3 tcp 1040 ------- 0 0.0 3.0 24 39
h 0.681166 3 10 ack 40 ------- 0 3.0 0.0 24 55
r 0.681252 10 3 tcp 1040 ------- 0 0.0 3.0 25 40
h 0.681252 3 10 ack 40 ------- 0 3.0 0.0 25 56
r 0.681337 10 3 tcp 1040 ------- 0 0.0 3.0 26 41
h 0.681337 3 10 ack 40 ------- 0 3.0 0.0 26 57
r 0.681422 10 3 tcp 1040 ------- 0 0.0 3.0 27 42
h 0.681422 3 10 ack 40 ------- 0 3.0 0.0 27 58
r 0.681508 10 3 tcp 1040 ------- 0 0.0 3.0 28 43
h 0.681508 3 10 ack 40 ------- 0 3.0 0.0 28 59
r 0.681593 10 3 tcp 1040 ------- 0 0.0 3.0 29 44
h 0.681593 3 10 ack 40 ------- 0 3.0 0.0 29 60
r 0.681678 10 3 tcp 1040 ------- 0 0.0 3.0 30 45
h 0.681678 3 10 ack 40 ------- 0 3.0 0.0 30 61
+ 0.690399 3 10 ack 40 ------- 0 3.0 0.0 15 46
- 0.690399 3 10 ack 40 ------- 0 3.0 0.0 15 46
+ 0.690484 3 10 ack 40 ------- 0 3.0 0.0 16 47
- 0.690484 3 10 ack 40 ------- 0 3.0 0.0 16 47
+ 0.690569 3 10 ack 40 ------- 0 3.0 0.0 17 48
- 0.690569 3 10 ack 40 ------- 0 3.0 0.0 17 48
+ 0.690655 3 10 ack 40 ------- 0 3.0 0.0 18 49
- 0.690655 3 10 ack 40 ------- 0 3.0 0.0 18 49
+ 0.69074 3 10 ack 40 ------- 0 3.0 0.0 19 50
- 0.69074 3 10 ack 40 ------- 0 3.0 0.0 19 50
+ 0.690825 3 10 ack 40 ------- 0 3.0 0.0 20 51
- 0.690825 3 10 ack 40 ------- 0 3.0 0.0 20 51
+ 0.690911 3 10 ack 40 ------- 0 3.0 0.0 21 52
- 0.690911 3 10 ack 40 ------- 0 3.0 0.0 21 52
+ 0.690996 3 10 ack 40 ------- 0 3.0 0.0 22 53
- 0.690996 3 10 ack 40 ------- 0 3.0 0.0 22 53
+ 0.691081 3 10 ack 40 ------- 0 3.0 0.0 23 54
- 0.691081 3 10 ack 40 ------- 0 3.0 0.0 23 54
+ 0.691166 3 10 ack 40 ------- 0 3.0 0.0 24 55
- 0.691166 3 10 ack 40 ------- 0 3.0 0.0 24 55
+ 0.691252 3 10 ack 40 ------- 0 3.0 0.0 25 56
- 0.691252 3 10 ack 40 ------- 0 3.0 0.0 25 56
+ 0.691337 3 10 ack 40 ------- 0 3.0 0.0 26 57
- 0.691337 3 10 ack 40 ------- 0 3.0 0.0 26 57
+ 0.691422 3 10 ack 40 ------- 0 3.0 0.0 27 58
- 0.691422 3 10 ack 40 ------- 0 3.0 0.0 27 58
+ 0.691508 3 10 ack 40 ------- 0 3.0 0.0 28 59
- 0.691508 3 10 ack 40 ------- 0 3.0 0.0 28 59
+ 0.691593 3 10 ack 40 ------- 0 3.0 0.0 29 60
- 0.691593 3 10 ack 40 ------- 0 3.0 0.0 29 60
+ 0.691678 3 10 ack 40 ------- 0 3.0 0.0 30 61
- 0.691678 3 10 ack 40 ------- 0 3.0 0.0 30 61
r 0.700408 10 0 ack 40 ------- 0 3.0 0.0 15 46
h 0.700408 0 10 tcp 1040 ------- 0 0.0 3.0 31 62
h 0.700408 0 10 tcp 1040 ------- 0 0.0 3.0 32 63
r 0.700493 10 0 ack 40 ------- 0 3.0 0.0 16 47
h 0.700493 0 10 tcp 1040 ------- 0 0.0 3.0 33 64
h 0.700493 0 10 tcp 1040 ------- 0 0.0 3.0 34 65
r 0.700579 10 0 ack 40 ------- 0 3.0 0.0 17 48
h 0.700579 0 10 tcp 1040 ------- 0 0.0 3.0 35 66
h 0.700579 0 10 tcp 1040 ------- 0 0.0 3.0 36 67
r 0.700664 10 0 ack 40 ------- 0 3.0 0.0 18 49
h 0.700664 0 10 tcp 1040 ------- 0 0.0 3.0 37 68
h 0.700664 0 10 tcp 1040 ------- 0 0.0 3.0 38 69
r 0.700749 10 0 ack 40 ------- 0 3.0 0.0 19 50
h 0.700749 0 10 tcp 1040 ------- 0 0.0 3.0 39 70
r 0.700834 10 0 ack 40 ------- 0 3.0 0.0 20 51
h 0.700834 0 10 tcp 1040 ------- 0 0.0 3.0 40 71
r 0.70092 10 0 ack 40 ------- 0 3.0 0.0 21 52
h 0.70092 0 10 tcp 1040 ------- 0 0.0 3.0 41 72
r 0.701005 10 0 ack 40 ------- 0 3.0 0.0 22 53
h 0.701005 0 10 tcp 1040 ------- 0 0.0 3.0 42 73
r 0.70109 10 0 ack 40 ------- 0 3.0 0.0 23 54
h 0.70109 0 10 tcp 1040 ------- 0 0.0 3.0 43 74
r 0.701176 10 0 ack 40 ------- 0 3.0 0.0 24 55
h 0.701176 0 10 tcp 1040 ------- 0 0.0 3.0 44 75
r 0.701261 10 0 ack 40 ------- 0 3.0 0.0 25 56
h 0.701261 0 10 tcp 1040 ------- 0 0.0 3.0 45 76
r 0.701346 10 0 ack 40 ------- 0 3.0 0.0 26 57
h 0.701346 0 10 tcp 1040 ------- 0 0.0 3.0 46 77
r 0.701431 10 0 ack 40 ------- 0 3.0 0.0 27 58
h 0.701431 0 10 tcp 1040 ------- 0 0.0 3.0 47 78
r 0.701517 10 0 ack 40 ------- 0 3.0 0.0 28 59
h 0.701517 0 10 tcp 1040 ------- 0 0.0 3.0 48 79
r 0.701602 10 0 ack 40 ------- 0 3.0 0.0 29 60
h 0.701602 0 10 tcp 1040 ------- 0 0.0 3.0 49 80
r 0.701687 10 0 ack 40 ------- 0 3.0 0.0 30 61
h 0.701687 0 10 tcp 1040 ------- 0 0.0 3.0 50 81
+ 0.710408 0 10 tcp 1040 ------- 0 0.0 3.0 31 62
- 0.710408 0 10 tcp 1040 ------- 0 0.0 3.0 31 62
+ 0.710408 0 10 tcp 1040 ------- 0 0.0 3.0 32 63
+ 0.710493 0 10 tcp 1040 ------- 0 0.0 3.0 33 64
+ 0.710493 0 10 tcp 1040 ------- 0 0.0 3.0 34 65
- 0.710493 0 10 tcp 1040 ------- 0 0.0 3.0 32 63
+ 0.710579 0 10 tcp 1040 ------- 0 0.0 3.0 35 66
+ 0.710579 0 10 tcp 1040 ------- 0 0.0 3.0 36 67
- 0.710579 0 10 tcp 1040 ------- 0 0.0 3.0 33 64
+ 0.710664 0 10 tcp 1040 ------- 0 0.0 3.0 37 68
+ 0.710664 0 10 tcp 1040 ------- 0 0.0 3.0 38 69
- 0.710664 0 10 tcp 1040 ------- 0 0.0 3.0 34 65
+ 0.710749 0 10 tcp 1040 ------- 0 0.0 3.0 39 70
- 0.710749 0 10 tcp 1040 ------- 0 0.0 3.0 35 66
+ 0.710834 0 10 tcp 1040 ------- 0 0.0 3.0 40 71
- 0.710834 0 10 tcp 1040 ------- 0 0.0 3.0 36 67
+ 0.71092 0 10 tcp 1040 ------- 0 0.0 3.0 41 72
- 0.71092 0 10 tcp 1040 ------- 0 0.0 3.0 37 68
+ 0.711005 0 10 tcp 1040 ------- 0 0.0 3.0 42 73
- 0.711005 0 10 tcp 1040 ------- 0 0.0 3.0 38 69
+ 0.71109 0 10 tcp 1040 ------- 0 0.0 3.0 43 74
- 0.71109 0 10 tcp 1040 ------- 0 0.0 3.0 39 70
+ 0.711176 0 10 tcp 1040 ------- 0 0.0 3.0 44 75
- 0.711176 0 10 tcp 1040 ------- 0 0.0 3.0 40 71
+ 0.711261 0 10 tcp 1040 ------- 0 0.0 3.0 45 76
- 0.711261 0 10 tcp 1040 ------- 0 0.0 3.0 41 72
+ 0.711346 0 10 tcp 1040 ------- 0 0.0 3.0 46 77
- 0.711346 0 10 tcp 1040 ------- 0 0.0 3.0 42 73
+ 0.711431 0 10 tcp 1040 ------- 0 0.0 3.0 47 78
- 0.711431 0 10 tcp 1040 ------- 0 0.0 3.0 43 74
+ 0.711517 0 10 tcp 1040 ------- 0 0.0 3.0 48 79
- 0.711517 0 10 tcp 1040 ------- 0 0.0 3.0 44 75
+ 0.711602 0 10 tcp 1040 ------- 0 0.0 3.0 49 80
- 0.711602 0 10 tcp 1040 ------- 0 0.0 3.0 45 76
+ 0.711687 0 10 tcp 1040 ------- 0 0.0 3.0 50 81
- 0.711687 0 10 tcp 1040 ------- 0 0.0 3.0 46 77
- 0.711772 0 10 tcp 1040 ------- 0 0.0 3.0 47 78
- 0.711858 0 10 tcp 1040 ------- 0 0.0 3.0 48 79
- 0.711943 0 10 tcp 1040 ------- 0 0.0 3.0 49 80
- 0.712028 0 10 tcp 1040 ------- 0 0.0 3.0 50 81
r 0.720496 10 3 tcp 1040 ------- 0 0.0 3.0 31 62
h 0.720496 3 10 ack 40 ------- 0 3.0 0.0 31 82
r 0.720582 10 3 tcp 1040 ------- 0 0.0 3.0 32 63
h 0.720582 3 10 ack 40 ------- 0 3.0 0.0 32 83
r 0.720667 10 3 tcp 1040 ------- 0 0.0 3.0 33 64
h 0.720667 3 10 ack 40 ------- 0 3.0 0.0 33 84
r 0.720752 10 3 tcp 1040 ------- 0 0.0 3.0 34 65
h 0.720752 3 10 ack 40 ------- 0 3.0 0.0 34 85
r 0.720837 10 3 tcp 1040 ------- 0 0.0 3.0 35 66
h 0.720837 3 10 ack 40 ------- 0 3.0 0.0 35 86
r 0.720923 10 3 tcp 1040 ------- 0 0.0 3.0 36 67
h 0.720923 3 10 ack 40 ------- 0 3.0 0.0 36 87
r 0.721008 10 3 tcp 1040 ------- 0 0.0 3.0 37 68
h 0.721008 3 10 ack 40 ------- 0 3.0 0.0 37 88
r 0.721093 10 3 tcp 1040 ------- 0 0.0 3.0 38 69
h 0.721093 3 10 ack 40 ------- 0 3.0 0.0 38 89
r 0.721179 10 3 tcp 1040 ------- 0 0.0 3.0 39 70
h 0.721179 3 10 ack 40 ------- 0 3.0 0.0 39 90
r 0.721264 10 3 tcp 1040 ------- 0 0.0 3.0 40 71
h 0.721264 3 10 ack 40 ------- 0 3.0 0.0 40 91
r 0.721349 10 3 tcp 1040 ------- 0 0.0 3.0 41 72
h 0.721349 3 10 ack 40 ------- 0 3.0 0.0 41 92
r 0.721434 10 3 tcp 1040 ------- 0 0.0 3.0 42 73
h 0.721434 3 10 ack 40 ------- 0 3.0 0.0 42 93
r 0.72152 10 3 tcp 1040 ------- 0 0.0 3.0 43 74
h 0.72152 3 10 ack 40 ------- 0 3.0 0.0 43 94
r 0.721605 10 3 tcp 1040 ------- 0 0.0 3.0 44 75
h 0.721605 3 10 ack 40 ------- 0 3.0 0.0 44 95
r 0.72169 10 3 tcp 1040 ------- 0 0.0 3.0 45 76
h 0.72169 3 10 ack 40 ------- 0 3.0 0.0 45 96
r 0.721776 10 3 tcp 1040 ------- 0 0.0 3.0 46 77
h 0.721776 3 10 ack 40 ------- 0 3.0 0.0 46 97
r 0.721861 10 3 tcp 1040 ------- 0 0.0 3.0 47 78
h 0.721861 3 10 ack 40 ------- 0 3.0 0.0 47 98
r 0.721946 10 3 tcp 1040 ------- 0 0.0 3.0 48 79
h 0.721946 3 10 ack 40 ------- 0 3.0 0.0 48 99
r 0.722031 10 3 tcp 1040 ------- 0 0.0 3.0 49 80
h 0.722031 3 10 ack 40 ------- 0 3.0 0.0 49 100
r 0.722117 10 3 tcp 1040 ------- 0 0.0 3.0 50 81
h 0.722117 3 10 ack 40 ------- 0 3.0 0.0 50 101
+ 0.730496 3 10 ack 40 ------- 0 3.0 0.0 31 82
- 0.730496 3 10 ack 40 ------- 0 3.0 0.0 31 82
+ 0.730582 3 10 ack 40 ------- 0 3.0 0.0 32 83
- 0.730582 3 10 ack 40 ------- 0 3.0 0.0 32 83
+ 0.730667 3 10 ack 40 ------- 0 3.0 0.0 33 84
- 0.730667 3 10 ack 40 ------- 0 3.0 0.0 33 84
+ 0.730752 3 10 ack 40 ------- 0 3.0 0.0 34 85
- 0.730752 3 10 ack 40 ------- 0 3.0 0.0 34 85
+ 0.730837 3 10 ack 40 ------- 0 3.0 0.0 35 86
- 0.730837 3 10 ack 40 ------- 0 3.0 0.0 35 86
+ 0.730923 3 10 ack 40 ------- 0 3.0 0.0 36 87
- 0.730923 3 10 ack 40 ------- 0 3.0 0.0 36 87
+ 0.731008 3 10 ack 40 ------- 0 3.0 0.0 37 88
- 0.731008 3 10 ack 40 ------- 0 3.0 0.0 37 88
+ 0.731093 3 10 ack 40 ------- 0 3.0 0.0 38 89
- 0.731093 3 10 ack 40 ------- 0 3.0 0.0 38 89
+ 0.731179 3 10 ack 40 ------- 0 3.0 0.0 39 90
- 0.731179 3 10 ack 40 ------- 0 3.0 0.0 39 90
+ 0.731264 3 10 ack 40 ------- 0 3.0 0.0 40 91
- 0.731264 3 10 ack 40 ------- 0 3.0 0.0 40 91
+ 0.731349 3 10 ack 40 ------- 0 3.0 0.0 41 92
- 0.731349 3 10 ack 40 ------- 0 3.0 0.0 41 92
+ 0.731434 3 10 ack 40 ------- 0 3.0 0.0 42 93
- 0.731434 3 10 ack 40 ------- 0 3.0 0.0 42 93
+ 0.73152 3 10 ack 40 ------- 0 3.0 0.0 43 94
- 0.73152 3 10 ack 40 ------- 0 3.0 0.0 43 94
+ 0.731605 3 10 ack 40 ------- 0 3.0 0.0 44 95
- 0.731605 3 10 ack 40 ------- 0 3.0 0.0 44 95
+ 0.73169 3 10 ack 40 ------- 0 3.0 0.0 45 96
- 0.73169 3 10 ack 40 ------- 0 3.0 0.0 45 96
+ 0.731776 3 10 ack 40 ------- 0 3.0 0.0 46 97
- 0.731776 3 10 ack 40 ------- 0 3.0 0.0 46 97
+ 0.731861 3 10 ack 40 ------- 0 3.0 0.0 47 98
- 0.731861 3 10 ack 40 ------- 0 3.0 0.0 47 98
+ 0.731946 3 10 ack 40 ------- 0 3.0 0.0 48 99
- 0.731946 3 10 ack 40 ------- 0 3.0 0.0 48 99
+ 0.732031 3 10 ack 40 ------- 0 3.0 0.0 49 100
- 0.732031 3 10 ack 40 ------- 0 3.0 0.0 49 100
+ 0.732117 3 10 ack 40 ------- 0 3.0 0.0 50 101
- 0.732117 3 10 ack 40 ------- 0 3.0 0.0 50 101
r 0.740505 10 0 ack 40 ------- 0 3.0 0.0 31 82
h 0.740505 0 10 tcp 1040 ------- 0 0.0 3.0 51 102
r 0.740591 10 0 ack 40 ------- 0 3.0 0.0 32 83
h 0.740591 0 10 tcp 1040 ------- 0 0.0 3.0 52 103
r 0.740676 10 0 ack 40 ------- 0 3.0 0.0 33 84
h 0.740676 0 10 tcp 1040 ------- 0 0.0 3.0 53 104
r 0.740761 10 0 ack 40 ------- 0 3.0 0.0 34 85
h 0.740761 0 10 tcp 1040 ------- 0 0.0 3.0 54 105
r 0.740847 10 0 ack 40 ------- 0 3.0 0.0 35 86
h 0.740847 0 10 tcp 1040 ------- 0 0.0 3.0 55 106
r 0.740932 10 0 ack 40 ------- 0 3.0 0.0 36 87
h 0.740932 0 10 tcp 1040 ------- 0 0.0 3.0 56 107
r 0.741017 10 0 ack 40 ------- 0 3.0 0.0 37 88
h 0.741017 0 10 tcp 1040 ------- 0 0.0 3.0 57 108
r 0.741102 10 0 ack 40 ------- 0 3.0 0.0 38 89
h 0.741102 0 10 tcp 1040 ------- 0 0.0 3.0 58 109
r 0.741188 10 0 ack 40 ------- 0 3.0 0.0 39 90
h 0.741188 0 10 tcp 1040 ------- 0 0.0 3.0 59 110
r 0.741273 10 0 ack 40 ------- 0 3.0 0.0 40 91
h 0.741273 0 10 tcp 1040 ------- 0 0.0 3.0 60 111
r 0.741358 10 0 ack 40 ------- 0 3.0 0.0 41 92
h 0.741358 0 10 tcp 1040 ------- 0 0.0 3.0 61 112
r 0.741444 10 0 ack 40 ------- 0 3.0 0.0 42 93
h 0.741444 0 10 tcp 1040 ------- 0 0.0 3.0 62 113
r 0.741529 10 0 ack 40 ------- 0 3.0 0.0 43 94
h 0.741529 0 10 tcp 1040 ------- 0 0.0 3.0 63 114
r 0.741614 10 0 ack 40 ------- 0 3.0 0.0 44 95
h 0.741614 0 10 tcp 1040 ------- 0 0.0 3.0 64 115
r 0.741699 10 0 ack 40 ------- 0 3.0 0.0 45 96
h 0.741699 0 10 tcp 1040 ------- 0 0.0 3.0 65 116
r 0.741785 10 0 ack 40 ------- 0 3.0 0.0 46 97
h 0.741785 0 10 tcp 1040 ------- 0 0.0 3.0 66 117
r 0.74187 10 0 ack 40 ------- 0 3.0 0.0 47 98
h 0.74187 0 10 tcp 1040 ------- 0 0.0 3.0 67 118
r 0.741955 10 0 ack 40 ------- 0 3.0 0.0 48 99
h 0.741955 0 10 tcp 1040 ------- 0 0.0 3.0 68 119
r 0.74204 10 0 ack 40 ------- 0 3.0 0.0 49 100
h 0.74204 0 10 tcp 1040 ------- 0 0.0 3.0 69 120
r 0.742126 10 0 ack 40 ------- 0 3.0 0.0 50 101
h 0.742126 0 10 tcp 1040 ------- 0 0.0 3.0 70 121
+ 0.750505 0 10 tcp 1040 ------- 0 0.0 3.0 51 102
- 0.750505 0 10 tcp 1040 ------- 0 0.0 3.0 51 102
+ 0.750591 0 10 tcp 1040 ------- 0 0.0 3.0 52 103
- 0.750591 0 10 tcp 1040 ------- 0 0.0 3.0 52 103
+ 0.750676 0 10 tcp 1040 ------- 0 0.0 3.0 53 104
- 0.750676 0 10 tcp 1040 ------- 0 0.0 3.0 53 104
+ 0.750761 0 10 tcp 1040 ------- 0 0.0 3.0 54 105
- 0.750761 0 10 tcp 1040 ------- 0 0.0 3.0 54 105
+ 0.750847 0 10 tcp 1040 ------- 0 0.0 3.0 55 106
- 0.750847 0 10 tcp 1040 ------- 0 0.0 3.0 55 106
+ 0.750932 0 10 tcp 1040 ------- 0 0.0 3.0 56 107
- 0.750932 0 10 tcp 1040 ------- 0 0.0 3.0 56 107
+ 0.751017 0 10 tcp 1040 ------- 0 0.0 3.0 57 108
- 0.751017 0 10 tcp 1040 ------- 0 0.0 3.0 57 108
+ 0.751102 0 10 tcp 1040 ------- 0 0.0 3.0 58 109
- 0.751102 0 10 tcp 1040 ------- 0 0.0 3.0 58 109
+ 0.751188 0 10 tcp 1040 ------- 0 0.0 3.0 59 110
- 0.751188 0 10 tcp 1040 ------- 0 0.0 3.0 59 110
+ 0.751273 0 10 tcp 1040 ------- 0 0.0 3.0 60 111
- 0.751273 0 10 tcp 1040 ------- 0 0.0 3.0 60 111
+ 0.751358 0 10 tcp 1040 ------- 0 0.0 3.0 61 112
- 0.751358 0 10 tcp 1040 ------- 0 0.0 3.0 61 112
+ 0.751444 0 10 tcp 1040 ------- 0 0.0 3.0 62 113
- 0.751444 0 10 tcp 1040 ------- 0 0.0 3.0 62 113
+ 0.751529 0 10 tcp 1040 ------- 0 0.0 3.0 63 114
- 0.751529 0 10 tcp 1040 ------- 0 0.0 3.0 63 114
+ 0.751614 0 10 tcp 1040 ------- 0 0.0 3.0 64 115
- 0.751614 0 10 tcp 1040 ------- 0 0.0 3.0 64 115
+ 0.751699 0 10 tcp 1040 ------- 0 0.0 3.0 65 116
- 0.751699 0 10 tcp 1040 ------- 0 0.0 3.0 65 116
+ 0.751785 0 10 tcp 1040 ------- 0 0.0 3.0 66 117
- 0.751785 0 10 tcp 1040 ------- 0 0.0 3.0 66 117
+ 0.75187 0 10 tcp 1040 ------- 0 0.0 3.0 67 118
- 0.75187 0 10 tcp 1040 ------- 0 0.0 3.0 67 118
+ 0.751955 0 10 tcp 1040 ------- 0 0.0 3.0 68 119
- 0.751955 0 10 tcp 1040 ------- 0 0.0 3.0 68 119
+ 0.75204 0 10 tcp 1040 ------- 0 0.0 3.0 69 120
- 0.75204 0 10 tcp 1040 ------- 0 0.0 3.0 69 120
+ 0.752126 0 10 tcp 1040 ------- 0 0.0 3.0 70 121
- 0.752126 0 10 tcp 1040 ------- 0 0.0 3.0 70 121
r 0.760594 10 3 tcp 1040 ------- 0 0.0 3.0 51 102
h 0.760594 3 10 ack 40 ------- 0 3.0 0.0 51 122
r 0.760679 10 3 tcp 1040 ------- 0 0.0 3.0 52 103
h 0.760679 3 10 ack 40 ------- 0 3.0 0.0 52 123
r 0.760764 10 3 tcp 1040 ------- 0 0.0 3.0 53 104
h 0.760764 3 10 ack 40 ------- 0 3.0 0.0 53 124
r 0.76085 10 3 tcp 1040 ------- 0 0.0 3.0 54 105
h 0.76085 3 10 ack 40 ------- 0 3.0 0.0 54 125
r 0.760935 10 3 tcp 1040 ------- 0 0.0 3.0 55 106
h 0.760935 3 10 ack 40 ------- 0 3.0 0.0 55 126
r 0.76102 10 3 tcp 1040 ------- 0 0.0 3.0 56 107
h 0.76102 3 10 ack 40 ------- 0 3.0 0.0 56 127
r 0.761105 10 3 tcp 1040 ------- 0 0.0 3.0 57 108
h 0.761105 3 10 ack 40 ------- 0 3.0 0.0 57 128
r 0.761191 10 3 tcp 1040 ------- 0 0.0 3.0 58 109
h 0.761191 3 10 ack 40 ------- 0 3.0 0.0 58 129
r 0.761276 10 3 tcp 1040 ------- 0 0.0 3.0 59 110
h 0.761276 3 10 ack 40 ------- 0 3.0 0.0 59 130
r 0.761361 10 3 tcp 1040 ------- 0 0.0 3.0 60 111
h 0.761361 3 10 ack 40 ------- 0 3.0 0.0 60 131
r 0.761447 10 3 tcp 1040 ------- 0 0.0 3.0 61 112
h 0.761447 3 10 ack 40 ------- 0 3.0 0.0 61 132
r 0.761532 10 3 tcp 1040 ------- 0 0.0 3.0 62 113
h 0.761532 3 10 ack 40 ------- 0 3.0 0.0 62 133
r 0.761617 10 3 tcp 1040 ------- 0 0.0 3.0 63 114
h 0.761617 3 10 ack 40 ------- 0 3.0 0.0 63 134
r 0.761702 10 3 tcp 1040 ------- 0 0.0 3.0 64 115
h 0.761702 3 10 ack 40 ------- 0 3.0 0.0 64 135
r 0.761788 10 3 tcp 1040 ------- 0 0.0 3.0 65 116
h 0.761788 3 10 ack 40 ------- 0 3.0 0.0 65 136
r 0.761873 10 3 tcp 1040 ------- 0 0.0 3.0 66 117
h 0.761873 3 10 ack 40 ------- 0 3.0 0.0 66 137
r 0.761958 10 3 tcp 1040 ------- 0 0.0 3.0 67 118
h 0.761958 3 10 ack 40 ------- 0 3.0 0.0 67 138
r 0.762044 10 3 tcp 1040 ------- 0 0.0 3.0 68 119
h 0.762044 3 10 ack 40 ------- 0 3.0 0.0 68 139
r 0.762129 10 3 tcp 1040 ------- 0 0.0 3.0 69 120
h 0.762129 3 10 ack 40 ------- 0 3.0 0.0 69 140
r 0.762214 10 3 tcp 1040 ------- 0 0.0 3.0 70 121
h 0.762214 3 10 ack 40 ------- 0 3.0 0.0 70 141
+ 0.770594 3 10 ack 40 ------- 0 3.0 0.0 51 122
- 0.770594 3 10 ack 40 ------- 0 3.0 0.0 51 122
+ 0.770679 3 10 ack 40 ------- 0 3.0 0.0 52 123
- 0.770679 3 10 ack 40 ------- 0 3.0 0.0 52 123
+ 0.770764 3 10 ack 40 ------- 0 3.0 0.0 53 124
- 0.770764 3 10 ack 40 ------- 0 3.0 0.0 53 124
+ 0.77085 3 10 ack 40 ------- 0 3.0 0.0 54 125
- 0.77085 3 10 ack 40 ------- 0 3.0 0.0 54 125
+ 0.770935 3 10 ack 40 ------- 0 3.0 0.0 55 126
- 0.770935 3 10 ack 40 ------- 0 3.0 0.0 55 126
+ 0.77102 3 10 ack 40 ------- 0 3.0 0.0 56 127
- 0.77102 3 10 ack 40 ------- 0 3.0 0.0 56 127
+ 0.771105 3 10 ack 40 ------- 0 3.0 0.0 57 128
- 0.771105 3 10 ack 40 ------- 0 3.0 0.0 57 128
+ 0.771191 3 10 ack 40 ------- 0 3.0 0.0 58 129
- 0.771191 3 10 ack 40 ------- 0 3.0 0.0 58 129
+ 0.771276 3 10 ack 40 ------- 0 3.0 0.0 59 130
- 0.771276 3 10 ack 40 ------- 0 3.0 0.0 59 130
+ 0.771361 3 10 ack 40 ------- 0 3.0 0.0 60 131
- 0.771361 3 10 ack 40 ------- 0 3.0 0.0 60 131
+ 0.771447 3 10 ack 40 ------- 0 3.0 0.0 61 132
- 0.771447 3 10 ack 40 ------- 0 3.0 0.0 61 132
+ 0.771532 3 10 ack 40 ------- 0 3.0 0.0 62 133
- 0.771532 3 10 ack 40 ------- 0 3.0 0.0 62 133
+ 0.771617 3 10 ack 40 ------- 0 3.0 0.0 63 134
- 0.771617 3 10 ack 40 ------- 0 3.0 0.0 63 134
+ 0.771702 3 10 ack 40 ------- 0 3.0 0.0 64 135
- 0.771702 3 10 ack 40 ------- 0 3.0 0.0 64 135
+ 0.771788 3 10 ack 40 ------- 0 3.0 0.0 65 136
- 0.771788 3 10 ack 40 ------- 0 3.0 0.0 65 136
+ 0.771873 3 10 ack 40 ------- 0 3.0 0.0 66 137
- 0.771873 3 10 ack 40 ------- 0 3.0 0.0 66 137
+ 0.771958 3 10 ack 40 ------- 0 3.0 0.0 67 138
- 0.771958 3 10 ack 40 ------- 0 3.0 0.0 67 138
+ 0.772044 3 10 ack 40 ------- 0 3.0 0.0 68 139
- 0.772044 3 10 ack 40 ------- 0 3.0 0.0 68 139
+ 0.772129 3 10 ack 40 ------- 0 3.0 0.0 69 140
- 0.772129 3 10 ack 40 ------- 0 3.0 0.0 69 140
+ 0.772214 3 10 ack 40 ------- 0 3.0 0.0 70 141
- 0.772214 3 10 ack 40 ------- 0 3.0 0.0 70 141
r 0.780603 10 0 ack 40 ------- 0 3.0 0.0 51 122
h 0.780603 0 10 tcp 1040 ------- 0 0.0 3.0 71 142
r 0.780688 10 0 ack 40 ------- 0 3.0 0.0 52 123
h 0.780688 0 10 tcp 1040 ------- 0 0.0 3.0 72 143
r 0.780773 10 0 ack 40 ------- 0 3.0 0.0 53 124
h 0.780773 0 10 tcp 1040 ------- 0 0.0 3.0 73 144
r 0.780859 10 0 ack 40 ------- 0 3.0 0.0 54 125
h 0.780859 0 10 tcp 1040 ------- 0 0.0 3.0 74 145
r 0.780944 10 0 ack 40 ------- 0 3.0 0.0 55 126
h 0.780944 0 10 tcp 1040 ------- 0 0.0 3.0 75 146
r 0.781029 10 0 ack 40 ------- 0 3.0 0.0 56 127
h 0.781029 0 10 tcp 1040 ------- 0 0.0 3.0 76 147
r 0.781115 10 0 ack 40 ------- 0 3.0 0.0 57 128
h 0.781115 0 10 tcp 1040 ------- 0 0.0 3.0 77 148
r 0.7812 10 0 ack 40 ------- 0 3.0 0.0 58 129
h 0.7812 0 10 tcp 1040 ------- 0 0.0 3.0 78 149
r 0.781285 10 0 ack 40 ------- 0 3.0 0.0 59 130
h 0.781285 0 10 tcp 1040 ------- 0 0.0 3.0 79 150
r 0.78137 10 0 ack 40 ------- 0 3.0 0.0 60 131
h 0.78137 0 10 tcp 1040 ------- 0 0.0 3.0 80 151
r 0.781456 10 0 ack 40 ------- 0 3.0 0.0 61 132
h 0.781456 0 10 tcp 1040 ------- 0 0.0 3.0 81 152
r 0.781541 10 0 ack 40 ------- 0 3.0 0.0 62 133
h 0.781541 0 10 tcp 1040 ------- 0 0.0 3.0 82 153
r 0.781626 10 0 ack 40 ------- 0 3.0 0.0 63 134
h 0.781626 0 10 tcp 1040 ------- 0 0.0 3.0 83 154
r 0.781712 10 0 ack 40 ------- 0 3.0 0.0 64 135
h 0.781712 0 10 tcp 1040 ------- 0 0.0 3.0 84 155
r 0.781797 10 0 ack 40 ------- 0 3.0 0.0 65 136
h 0.781797 0 10 tcp 1040 ------- 0 0.0 3.0 85 156
r 0.781882 10 0 ack 40 ------- 0 3.0 0.0 66 137
h 0.781882 0 10 tcp 1040 ------- 0 0.0 3.0 86 157
r 0.781967 10 0 ack 40 ------- 0 3.0 0.0 67 138
h 0.781967 0 10 tcp 1040 ------- 0 0.0 3.0 87 158
r 0.782053 10 0 ack 40 ------- 0 3.0 0.0 68 139
h 0.782053 0 10 tcp 1040 ------- 0 0.0 3.0 88 159
r 0.782138 10 0 ack 40 ------- 0 3.0 0.0 69 140
h 0.782138 0 10 tcp 1040 ------- 0 0.0 3.0 89 160
r 0.782223 10 0 ack 40 ------- 0 3.0 0.0 70 141
h 0.782223 0 10 tcp 1040 ------- 0 0.0 3.0 90 161
+ 0.790603 0 10 tcp 1040 ------- 0 0.0 3.0 71 142
- 0.790603 0 10 tcp 1040 ------- 0 0.0 3.0 71 142
+ 0.790688 0 10 tcp 1040 ------- 0 0.0 3.0 72 143
- 0.790688 0 10 tcp 1040 ------- 0 0.0 3.0 72 143
+ 0.790773 0 10 tcp 1040 ------- 0 0.0 3.0 73 144
- 0.790773 0 10 tcp 1040 ------- 0 0.0 3.0 73 144
+ 0.790859 0 10 tcp 1040 ------- 0 0.0 3.0 74 145
- 0.790859 0 10 tcp 1040 ------- 0 0.0 3.0 74 145
+ 0.790944 0 10 tcp 1040 ------- 0 0.0 3.0 75 146
- 0.790944 0 10 tcp 1040 ------- 0 0.0 3.0 75 146
+ 0.791029 0 10 tcp 1040 ------- 0 0.0 3.0 76 147
- 0.791029 0 10 tcp 1040 ------- 0 0.0 3.0 76 147
+ 0.791115 0 10 tcp 1040 ------- 0 0.0 3.0 77 148
- 0.791115 0 10 tcp 1040 ------- 0 0.0 3.0 77 148
+ 0.7912 0 10 tcp 1040 ------- 0 0.0 3.0 78 149
- 0.7912 0 10 tcp 1040 ------- 0 0.0 3.0 78 149
+ 0.791285 0 10 tcp 1040 ------- 0 0.0 3.0 79 150
- 0.791285 0 10 tcp 1040 ------- 0 0.0 3.0 79 150
+ 0.79137 0 10 tcp 1040 ------- 0 0.0 3.0 80 151
- 0.79137 0 10 tcp 1040 ------- 0 0.0 3.0 80 151
+ 0.791456 0 10 tcp 1040 ------- 0 0.0 3.0 81 152
- 0.791456 0 10 tcp 1040 ------- 0 0.0 3.0 81 152
+ 0.791541 0 10 tcp 1040 ------- 0 0.0 3.0 82 153
- 0.791541 0 10 tcp 1040 ------- 0 0.0 3.0 82 153
+ 0.791626 0 10 tcp 1040 ------- 0 0.0 3.0 83 154
- 0.791626 0 10 tcp 1040 ------- 0 0.0 3.0 83 154
+ 0.791712 0 10 tcp 1040 ------- 0 0.0 3.0 84 155
- 0.791712 0 10 tcp 1040 ------- 0 0.0 3.0 84 155
+ 0.791797 0 10 tcp 1040 ------- 0 0.0 3.0 85 156
- 0.791797 0 10 tcp 1040 ------- 0 0.0 3.0 85 156
+ 0.791882 0 10 tcp 1040 ------- 0 0.0 3.0 86 157
- 0.791882 0 10 tcp 1040 ------- 0 0.0 3.0 86 157
+ 0.791967 0 10 tcp 1040 ------- 0 0.0 3.0 87 158
- 0.791967 0 10 tcp 1040 ------- 0 0.0 3.0 87 158
+ 0.792053 0 10 tcp 1040 ------- 0 0.0 3.0 88 159