V -t * -v 1.0a5 -a 0
A -t * -n 1 -p 0 -o 0x7fffffff -c 30 -a 1
A -t * -h 1 -m 1073741823 -s 0
n -t * -a 4 -s 4 -S UP -v circle -c black -i black
n -t * -a 0 -s 0 -S UP -v circle -c black -i black
n -t * -a 5 -s 5 -S UP -v circle -c black -i black
n -t * -a 1 -s 1 -S UP -v circle -c black -i black
n -t * -a 6 -s 6 -S UP -v circle -c black -i black
n -t * -a 2 -s 2 -S UP -v circle -c black -i black
n -t * -a 3 -s 3 -S UP -v circle -c black -i black
X -t * -n 7 -r 2Mb -D 10ms -o left
L -t * -s 7 -d 0 -o up
L -t * -s 7 -d 1 -o down
L -t * -s 7 -d 2 -o up
L -t * -s 7 -d 3 -o down
L -t * -s 7 -d 4 -o up
L -t * -s 7 -d 5 -o down
L -t * -s 7 -d 6 -o up
h -t 0.5 -s 0 -d 7 -p tcp -e 40 -c 0 -i 0 -a 0 -x {0.0 2.0 0 ------- null}
+ -t 0.51 -s 0 -d 7 -p tcp -e 40 -c 0 -i 0 -a 0 -x {0.0 2.0 0 ------- null}
- -t 0.51 -s 0 -d 7 -p tcp -e 40 -c 0 -i 0 -a 0 -x {0.0 2.0 0 ------- null}
h -t 0.51 -s 0 -d 7 -p tcp -e 40 -c 0 -i 0 -a 0 -x {0.0 2.0 -1 ------- null}
r -t 0.52026 -s 7 -d 2 -p tcp -e 40 -c 0 -i 0 -a 0 -x {0.0 2.0 0 ------- null}
h -t 0.52026 -s 2 -d 7 -p ack -e 40 -c 0 -i 1 -a 0 -x {2.0 0.0 0 ------- null}
+ -t 0.53026 -s 2 -d 7 -p ack -e 40 -c 0 -i 1 -a 0 -x {2.0 0.0 0 ------- null}
- -t 0.53026 -s 2 -d 7 -p ack -e 40 -c 0 -i 1 -a 0 -x {2.0 0.0 0 ------- null}
h -t 0.53026 -s 2 -d 7 -p ack -e 40 -c 0 -i 1 -a 0 -x {2.0 0.0 -1 ------- null}
r -t 0.54052 -s 7 -d 0 -p ack -e 40 -c 0 -i 1 -a 0 -x {2.0 0.0 0 ------- null}
h -t 0.54052 -s 0 -d 7 -p tcp -e 1040 -c 0 -i 2 -a 0 -x {0.0 2.0 1 ------- null}
h -t 0.54052 -s 0 -d 7 -p tcp -e 1040 -c 0 -i 3 -a 0 -x {0.0 2.0 2 ------- null}
+ -t 0.55052 -s 0 -d 7 -p tcp -e 1040 -c 0 -i 2 -a 0 -x {0.0 2.0 1 ------- null}
- -t 0.55052 -s 0 -d 7 -p tcp -e 1040 -c 0 -i 2 -a 0 -x {0.0 2.0 1 ------- null}
h -t 0.55052 -s 0 -d 7 -p tcp -e 1040 -c 0 -i 2 -a 0 -x {0.0 2.0 -1 ------- null}
+ -t 0.55052 -s 0 -d 7 -p tcp -e 1040 -c 0 -i 3 -a 0 -x {0.0 2.0 2 ------- null}
- -t 0.554784 -s 0 -d 7 -p tcp -e 1040 -c 0 -i 3 -a 0 -x {0.0 2.0 2 ------- null}
h -t 0.554784 -s 0 -d 7 -p tcp -e 1040 -c 0 -i 3 -a 0 -x {0.0 2.0 -1 ------- null}
r -t 0.56474 -s 7 -d 2 -p tcp -e 1040 -c 0 -i 2 -a 0 -x {0.0 2.0 1 ------- null}
h -t 0.56474 -s 2 -d 7 -p ack -e 40 -c 0 -i 4 -a 0 -x {2.0 0.0 1 ------- null}
r -t 0.569004 -s 7 -d 2 -p tcp -e 1040 -c 0 -i 3 -a 0 -x {0.0 2.0 2 ------- null}
h -t 0.569004 -s 2 -d 7 -p ack -e 40 -c 0 -i 5 -a 0 -x {2.0 0.0 2 ------- null}
+ -t 0.57474 -s 2 -d 7 -p ack -e 40 -c 0 -i 4 -a 0 -x {2.0 0.0 1 ------- null}
- -t 0.57474 -s 2 -d 7 -p ack -e 40 -c 0 -i 4 -a 0 -x {2.0 0.0 1 ------- null}
h -t 0.57474 -s 2 -d 7 -p ack -e 40 -c 0 -i 4 -a 0 -x {2.0 0.0 -1 ------- null}
+ -t 0.579004 -s 2 -d 7 -p ack -e 40 -c 0 -i 5 -a 0 -x {2.0 0.0 2 ------- null}
- -t 0.579004 -s 2 -d 7 -p ack -e 40 -c 0 -i 5 -a 0 -x {2.0 0.0 2 ------- null}
h -t 0.579004 -s 2 -d 7 -p ack -e 40 -c 0 -i 5 -a 0 -x {2.0 0.0 -1 ------- null}
r -t 0.585 -s 7 -d 0 -p ack -e 40 -c 0 -i 4 -a 0 -x {2.0 0.0 1 ------- null}
h -t 0.585 -s 0 -d 7 -p tcp -e 1040 -c 0 -i 6 -a 0 -x {0.0 2.0 3 ------- null}
h -t 0.585 -s 0 -d 7 -p tcp -e 1040 -c 0 -i 7 -a 0 -x {0.0 2.0 4 ------- null}
r -t 0.589264 -s 7 -d 0 -p ack -e 40 -c 0 -i 5 -a 0 -x {2.0 0.0 2 ------- null}
h -t 0.589264 -s 0 -d 7 -p tcp -e 1040 -c 0 -i 8 -a 0 -x {0.0 2.0 5 ------- null}
h -t 0.589264 -s 0 -d 7 -p tcp -e 1040 -c 0 -i 9 -a 0 -x {0.0 2.0 6 ------- null}
+ -t 0.595 -s 0 -d 7 -p tcp -e 1040 -c 0 -i 6 -a 0 -x {0.0 2.0 3 ------- null}
- -t 0.595 -s 0 -d 7 -p tcp -e 1040 -c 0 -i 6 -a 0 -x {0.0 2.0 3 ------- null}
h -t 0.595 -s 0 -d 7 -p tcp -e 1040 -c 0 -i 6 -a 0 -x {0.0 2.0 -1 ------- null}
+ -t 0.595 -s 0 -d 7 -p tcp -e 1040 -c 0 -i 7 -a 0 -x {0.0 2.0 4 ------- null}
+ -t 0.599264 -s 0 -d 7 -p tcp -e 1040 -c 0 -i 8 -a 0 -x {0.0 2.0 5 ------- null}
+ -t 0.599264 -s 0 -d 7 -p tcp -e 1040 -c 0 -i 9 -a 0 -x {0.0 2.0 6 ------- null}
- -t 0.599264 -s 0 -d 7 -p tcp -e 1040 -c 0 -i 7 -a 0 -x {0.0 2.0 4 ------- null}
h -t 0.599264 -s 0 -d 7 -p tcp -e 1040 -c 0 -i 7 -a 0 -x {0.0 2.0 -1 ------- null}
- -t 0.603528 -s 0 -d 7 -p tcp -e 1040 -c 0 -i 8 -a 0 -x {0.0 2.0 5 ------- null}
h -t 0.603528 -s 0 -d 7 -p tcp -e 1040 -c 0 -i 8 -a 0 -x {0.0 2.0 -1 ------- null}
- -t 0.607792 -s 0 -d 7 -p tcp -e 1040 -c 0 -i 9 -a 0 -x {0.0 2.0 6 ------- null}
h -t 0.607792 -s 0 -d 7 -p tcp -e 1040 -c 0 -i 9 -a 0 -x {0.0 2.0 -1 ------- null}
r -t 0.60922 -s 7 -d 2 -p tcp -e 1040 -c 0 -i 6 -a 0 -x {0.0 2.0 3 ------- null}
h -t 0.60922 -s 2 -d 7 -p ack -e 40 -c 0 -i 10 -a 0 -x {2.0 0.0 3 ------- null}
r -t 0.613484 -s 7 -d 2 -p tcp -e 1040 -c 0 -i 7 -a 0 -x {0.0 2.0 4 ------- null}
h -t 0.613484 -s 2 -d 7 -p ack -e 40 -c 0 -i 11 -a 0 -x {2.0 0.0 4 ------- null}
r -t 0.617748 -s 7 -d 2 -p tcp -e 1040 -c 0 -i 8 -a 0 -x {0.0 2.0 5 ------- null}
h -t 0.617748 -s 2 -d 7 -p ack -e 40 -c 0 -i 12 -a 0 -x {2.0 0.0 5 ------- null}
+ -t 0.61922 -s 2 -d 7 -p ack -e 40 -c 0 -i 10 -a 0 -x {2.0 0.0 3 ------- null}
- -t 0.61922 -s 2 -d 7 -p ack -e 40 -c 0 -i 10 -a 0 -x {2.0 0.0 3 ------- null}
h -t 0.61922 -s 2 -d 7 -p ack -e 40 -c 0 -i 10 -a 0 -x {2.0 0.0 -1 ------- null}
r -t 0.622012 -s 7 -d 2 -p tcp -e 1040 -c 0 -i 9 -a 0 -x {0.0 2.0 6 ------- null}
h -t 0.622012 -s 2 -d 7 -p ack -e 40 -c 0 -i 13 -a 0 -x {2.0 0.0 6 ------- null}
+ -t 0.623484 -s 2 -d 7 -p ack -e 40 -c 0 -i 11 -a 0 -x {2.0 0.0 4 ------- null}
- -t 0.623484 -s 2 -d 7 -p ack -e 40 -c 0 -i 11 -a 0 -x {2.0 0.0 4 ------- null}
h -t 0.623484 -s 2 -d 7 -p ack -e 40 -c 0 -i 11 -a 0 -x {2.0 0.0 -1 ------- null}
+ -t 0.627748 -s 2 -d 7 -p ack -e 40 -c 0 -i 12 -a 0 -x {2.0 0.0 5 ------- null}
- -t 0.627748 -s 2 -d 7 -p ack -e 40 -c 0 -i 12 -a 0 -x {2.0 0.0 5 ------- null}
h -t 0.627748 -s 2 -d 7 -p ack -e 40 -c 0 -i 12 -a 0 -x {2.0 0.0 -1 ------- null}
r -t 0.62948 -s 7 -d 0 -p ack -e 40 -c 0 -i 10 -a 0 -x {2.0 0.0 3 ------- null}
h -t 0.62948 -s 0 -d 7 -p tcp -e 1040 -c 0 -i 14 -a 0 -x {0.0 2.0 7 ------- null}
h -t 0.62948 -s 0 -d 7 -p tcp -e 1040 -c 0 -i 15 -a 0 -x {0.0 2.0 8 ------- null}
+ -t 0.632012 -s 2 -d 7 -p ack -e 40 -c 0 -i 13 -a 0 -x {2.0 0.0 6 ------- null}
- -t 0.632012 -s 2 -d 7 -p ack -e 40 -c 0 -i 13 -a 0 -x {2.0 0.0 6 ------- null}
h -t 0.632012 -s 2 -d 7 -p ack -e 40 -c 0 -i 13 -a 0 -x {2.0 0.0 -1 ------- null}
r -t 0.633744 -s 7 -d 0 -p ack -e 40 -c 0 -i 11 -a 0 -x {2.0 0.0 4 ------- null}
h -t 0.633744 -s 0 -d 7 -p tcp -e 1040 -c 0 -i 16 -a 0 -x {0.0 2.0 9 ------- null}
h -t 0.633744 -s 0 -d 7 -p tcp -e 1040 -c 0 -i 17 -a 0 -x {0.0 2.0 10 ------- null}
r -t 0.638008 -s 7 -d 0 -p ack -e 40 -c 0 -i 12 -a 0 -x {2.0 0.0 5 ------- null}
h -t 0.638008 -s 0 -d 7 -p tcp -e 1040 -c 0 -i 18 -a 0 -x {0.0 2.0 11 ------- null}
h -t 0.638008 -s 0 -d 7 -p tcp -e 1040 -c 0 -i 19 -a 0 -x {0.0 2.0 12 ------- null}
+ -t 0.63948 -s 0 -d 7 -p tcp -e 1040 -c 0 -i 14 -a 0 -x {0.0 2.0 7 ------- null}
- -t 0.63948 -s 0 -d 7 -p tcp -e 1040 -c 0 -i 14 -a 0 -x {0.0 2.0 7 ------- null}
h -t 0.63948 -s 0 -d 7 -p tcp -e 1040 -c 0 -i 14 -a 0 -x {0.0 2.0 -1 ------- null}
+ -t 0.63948 -s 0 -d 7 -p tcp -e 1040 -c 0 -i 15 -a 0 -x {0.0 2.0 8 ------- null}
r -t 0.642272 -s 7 -d 0 -p ack -e 40 -c 0 -i 13 -a 0 -x {2.0 0.0 6 ------- null}
h -t 0.642272 -s 0 -d 7 -p tcp -e 1040 -c 0 -i 20 -a 0 -x {0.0 2.0 13 ------- null}
h -t 0.642272 -s 0 -d 7 -p tcp -e 1040 -c 0 -i 21 -a 0 -x {0.0 2.0 14 ------- null}
+ -t 0.643744 -s 0 -d 7 -p tcp -e 1040 -c 0 -i 16 -a 0 -x {0.0 2.0 9 ------- null}
+ -t 0.643744 -s 0 -d 7 -p tcp -e 1040 -c 0 -i 17 -a 0 -x {0.0 2.0 10 ------- null}
- -t 0.643744 -s 0 -d 7 -p tcp -e 1040 -c 0 -i 15 -a 0 -x {0.0 2.0 8 ------- null}
h -t 0.643744 -s 0 -d 7 -p tcp -e 1040 -c 0 -i 15 -a 0 -x {0.0 2.0 -1 ------- null}
+ -t 0.648008 -s 0 -d 7 -p tcp -e 1040 -c 0 -i 18 -a 0 -x {0.0 2.0 11 ------- null}
+ -t 0.648008 -s 0 -d 7 -p tcp -e 1040 -c 0 -i 19 -a 0 -x {0.0 2.0 12 ------- null}
- -t 0.648008 -s 0 -d 7 -p tcp -e 1040 -c 0 -i 16 -a 0 -x {0.0 2.0 9 ------- null}
h -t 0.648008 -s 0 -d 7 -p tcp -e 1040 -c 0 -i 16 -a 0 -x {0.0 2.0 -1 ------- null}
+ -t 0.652272 -s 0 -d 7 -p tcp -e 1040 -c 0 -i 20 -a 0 -x {0.0 2.0 13 ------- null}
+ -t 0.652272 -s 0 -d 7 -p tcp -e 1040 -c 0 -i 21 -a 0 -x {0.0 2.0 14 ------- null}
- -t 0.652272 -s 0 -d 7 -p tcp -e 1040 -c 0 -i 17 -a 0 -x {0.0 2.0 10 ------- null}
h -t 0.652272 -s 0 -d 7 -p tcp -e 1040 -c 0 -i 17 -a 0 -x {0.0 2.0 -1 ------- null}
r -t 0.6537 -s 7 -d 2 -p tcp -e 1040 -c 0 -i 14 -a 0 -x {0.0 2.0 7 ------- null}
h -t 0.6537 -s 2 -d 7 -p ack -e 40 -c 0 -i 22 -a 0 -x {2.0 0.0 7 ------- null}
- -t 0.656536 -s 0 -d 7 -p tcp -e 1040 -c 0 -i 18 -a 0 -x {0.0 2.0 11 ------- null}
h -t 0.656536 -s 0 -d 7 -p tcp -e 1040 -c 0 -i 18 -a 0 -x {0.0 2.0 -1 ------- null}
r -t 0.657964 -s 7 -d 2 -p tcp -e 1040 -c 0 -i 15 -a 0 -x {0.0 2.0 8 ------- null}
h -t 0.657964 -s 2 -d 7 -p ack -e 40 -c 0 -i 23 -a 0 -x {2.0 0.0 8 ------- null}
- -t 0.6608 -s 0 -d 7 -p tcp -e 1040 -c 0 -i 19 -a 0 -x {0.0 2.0 12 ------- null}
h -t 0.6608 -s 0 -d 7 -p tcp -e 1040 -c 0 -i 19 -a 0 -x {0.0 2.0 -1 ------- null}
r -t 0.662228 -s 7 -d 2 -p tcp -e 1040 -c 0 -i 16 -a 0 -x {0.0 2.0 9 ------- null}
h -t 0.662228 -s 2 -d 7 -p ack -e 40 -c 0 -i 24 -a 0 -x {2.0 0.0 9 ------- null}
+ -t 0.6637 -s 2 -d 7 -p ack -e 40 -c 0 -i 22 -a 0 -x {2.0 0.0 7 ------- null}
- -t 0.6637 -s 2 -d 7 -p ack -e 40 -c 0 -i 22 -a 0 -x {2.0 0.0 7 ------- null}
h -t 0.6637 -s 2 -d 7 -p ack -e 40 -c 0 -i 22 -a 0 -x {2.0 0.0 -1 ------- null}
- -t 0.665064000000001 -s 0 -d 7 -p tcp -e 1040 -c 0 -i 20 -a 0 -x {0.0 2.0 13 ------- null}
h -t 0.665064000000001 -s 0 -d 7 -p tcp -e 1040 -c 0 -i 20 -a 0 -x {0.0 2.0 -1 ------- null}
r -t 0.666492 -s 7 -d 2 -p tcp -e 1040 -c 0 -i 17 -a 0 -x {0.0 2.0 10 ------- null}
h -t 0.666492 -s 2 -d 7 -p ack -e 40 -c 0 -i 25 -a 0 -x {2.0 0.0 10 ------- null}
+ -t 0.667964 -s 2 -d 7 -p ack -e 40 -c 0 -i 23 -a 0 -x {2.0 0.0 8 ------- null}
- -t 0.667964 -s 2 -d 7 -p ack -e 40 -c 0 -i 23 -a 0 -x {2.0 0.0 8 ------- null}
h -t 0.667964 -s 2 -d 7 -p ack -e 40 -c 0 -i 23 -a 0 -x {2.0 0.0 -1 ------- null}
- -t 0.669704000000001 -s 0 -d 7 -p tcp -e 1040 -c 0 -i 21 -a 0 -x {0.0 2.0 14 ------- null}
h -t 0.669704000000001 -s 0 -d 7 -p tcp -e 1040 -c 0 -i 21 -a 0 -x {0.0 2.0 -1 ------- null}
r -t 0.670756 -s 7 -d 2 -p tcp -e 1040 -c 0 -i 18 -a 0 -x {0.0 2.0 11 ------- null}
h -t 0.670756 -s 2 -d 7 -p ack -e 40 -c 0 -i 26 -a 0 -x {2.0 0.0 11 ------- null}
+ -t 0.672228 -s 2 -d 7 -p ack -e 40 -c 0 -i 24 -a 0 -x {2.0 0.0 9 ------- null}
- -t 0.674348000000001 -s 2 -d 7 -p ack -e 40 -c 0 -i 24 -a 0 -x {2.0 0.0 9 ------- null}
h -t 0.674348000000001 -s 2 -d 7 -p ack -e 40 -c 0 -i 24 -a 0 -x {2.0 0.0 -1 ------- null}
r -t 0.675020000000001 -s 7 -d 2 -p tcp -e 1040 -c 0 -i 19 -a 0 -x {0.0 2.0 12 ------- null}
h -t 0.675020000000001 -s 2 -d 7 -p ack -e 40 -c 0 -i 27 -a 0 -x {2.0 0.0 12 ------- null}
r -t 0.675392000000001 -s 7 -d 0 -p ack -e 40 -c 0 -i 22 -a 0 -x {2.0 0.0 7 ------- null}
h -t 0.675392000000001 -s 0 -d 7 -p tcp -e 1040 -c 0 -i 28 -a 0 -x {0.0 2.0 15 ------- null}
h -t 0.675392000000001 -s 0 -d 7 -p tcp -e 1040 -c 0 -i 29 -a 0 -x {0.0 2.0 16 ------- null}
+ -t 0.676492 -s 2 -d 7 -p ack -e 40 -c 0 -i 25 -a 0 -x {2.0 0.0 10 ------- null}
- -t 0.676492 -s 2 -d 7 -p ack -e 40 -c 0 -i 25 -a 0 -x {2.0 0.0 10 ------- null}
h -t 0.676492 -s 2 -d 7 -p ack -e 40 -c 0 -i 25 -a 0 -x {2.0 0.0 -1 ------- null}
r -t 0.679660000000001 -s 7 -d 2 -p tcp -e 1040 -c 0 -i 20 -a 0 -x {0.0 2.0 13 ------- null}
h -t 0.679660000000001 -s 2 -d 7 -p ack -e 40 -c 0 -i 30 -a 0 -x {2.0 0.0 13 ------- null}
+ -t 0.680756 -s 2 -d 7 -p ack -e 40 -c 0 -i 26 -a 0 -x {2.0 0.0 11 ------- null}
- -t 0.680756 -s 2 -d 7 -p ack -e 40 -c 0 -i 26 -a 0 -x {2.0 0.0 11 ------- null}
h -t 0.680756 -s 2 -d 7 -p ack -e 40 -c 0 -i 26 -a 0 -x {2.0 0.0 -1 ------- null}
r -t 0.683996000000001 -s 7 -d 2 -p tcp -e 1040 -c 0 -i 21 -a 0 -x {0.0 2.0 14 ------- null}
h -t 0.683996000000001 -s 2 -d 7 -p ack -e 40 -c 0 -i 31 -a 0 -x {2.0 0.0 14 ------- null}
r -t 0.684304000000001 -s 7 -d 0 -p ack -e 40 -c 0 -i 23 -a 0 -x {2.0 0.0 8 ------- null}
h -t 0.684304000000001 -s 0 -d 7 -p tcp -e 1040 -c 0 -i 32 -a 0 -x {0.0 2.0 17 ------- null}
h -t 0.684304000000001 -s 0 -d 7 -p tcp -e 1040 -c 0 -i 33 -a 0 -x {0.0 2.0 18 ------- null}
r -t 0.684608000000001 -s 7 -d 0 -p ack -e 40 -c 0 -i 24 -a 0 -x {2.0 0.0 9 ------- null}
h -t 0.684608000000001 -s 0 -d 7 -p tcp -e 1040 -c 0 -i 34 -a 0 -x {0.0 2.0 19 ------- null}
h -t 0.684608000000001 -s 0 -d 7 -p tcp -e 1040 -c 0 -i 35 -a 0 -x {0.0 2.0 20 ------- null}
+ -t 0.685020000000001 -s 2 -d 7 -p ack -e 40 -c 0 -i 27 -a 0 -x {2.0 0.0 12 ------- null}
- -t 0.685020000000001 -s 2 -d 7 -p ack -e 40 -c 0 -i 27 -a 0 -x {2.0 0.0 12 ------- null}
h -t 0.685020000000001 -s 2 -d 7 -p ack -e 40 -c 0 -i 27 -a 0 -x {2.0 0.0 -1 ------- null}
+ -t 0.685392000000001 -s 0 -d 7 -p tcp -e 1040 -c 0 -i 28 -a 0 -x {0.0 2.0 15 ------- null}
- -t 0.685392000000001 -s 0 -d 7 -p tcp -e 1040 -c 0 -i 28 -a 0 -x {0.0 2.0 15 ------- null}
h -t 0.685392000000001 -s 0 -d 7 -p tcp -e 1040 -c 0 -i 28 -a 0 -x {0.0 2.0 -1 ------- null}
+ -t 0.685392000000001 -s 0 -d 7 -p tcp -e 1040 -c 0 -i 29 -a 0 -x {0.0 2.0 16 ------- null}
r -t 0.686752 -s 7 -d 0 -p ack -e 40 -c 0 -i 25 -a 0 -x {2.0 0.0 10 ------- null}
h -t 0.686752 -s 0 -d 7 -p tcp -e 1040 -c 0 -i 36 -a 0 -x {0.0 2.0 21 ------- null}
h -t 0.686752 -s 0 -d 7 -p tcp -e 1040 -c 0 -i 37 -a 0 -x {0.0 2.0 22 ------- null}
- -t 0.689656000000001 -s 0 -d 7 -p tcp -e 1040 -c 0 -i 29 -a 0 -x {0.0 2.0 16 ------- null}
h -t 0.689656000000001 -s 0 -d 7 -p tcp -e 1040 -c 0 -i 29 -a 0 -x {0.0 2.0 -1 ------- null}
+ -t 0.689660000000001 -s 2 -d 7 -p ack -e 40 -c 0 -i 30 -a 0 -x {2.0 0.0 13 ------- null}
- -t 0.689660000000001 -s 2 -d 7 -p ack -e 40 -c 0 -i 30 -a 0 -x {2.0 0.0 13 ------- null}
h -t 0.689660000000001 -s 2 -d 7 -p ack -e 40 -c 0 -i 30 -a 0 -x {2.0 0.0 -1 ------- null}
r -t 0.691016000000001 -s 7 -d 0 -p ack -e 40 -c 0 -i 26 -a 0 -x {2.0 0.0 11 ------- null}
h -t 0.691016000000001 -s 0 -d 7 -p tcp -e 1040 -c 0 -i 38 -a 0 -x {0.0 2.0 23 ------- null}
h -t 0.691016000000001 -s 0 -d 7 -p tcp -e 1040 -c 0 -i 39 -a 0 -x {0.0 2.0 24 ------- null}
+ -t 0.693996000000001 -s 2 -d 7 -p ack -e 40 -c 0 -i 31 -a 0 -x {2.0 0.0 14 ------- null}
- -t 0.693996000000001 -s 2 -d 7 -p ack -e 40 -c 0 -i 31 -a 0 -x {2.0 0.0 14 ------- null}
h -t 0.693996000000001 -s 2 -d 7 -p ack -e 40 -c 0 -i 31 -a 0 -x {2.0 0.0 -1 ------- null}
+ -t 0.694304000000001 -s 0 -d 7 -p tcp -e 1040 -c 0 -i 32 -a 0 -x {0.0 2.0 17 ------- null}
+ -t 0.694304000000001 -s 0 -d 7 -p tcp -e 1040 -c 0 -i 33 -a 0 -x {0.0 2.0 18 ------- null}
+ -t 0.694608000000001 -s 0 -d 7 -p tcp -e 1040 -c 0 -i 34 -a 0 -x {0.0 2.0 19 ------- null}
+ -t 0.694608000000001 -s 0 -d 7 -p tcp -e 1040 -c 0 -i 35 -a 0 -x {0.0 2.0 20 ------- null}
- -t 0.694624000000001 -s 0 -d 7 -p tcp -e 1040 -c 0 -i 32 -a 0 -x {0.0 2.0 17 ------- null}
h -t 0.694624000000001 -s 0 -d 7 -p tcp -e 1040 -c 0 -i 32 -a 0 -x {0.0 2.0 -1 ------- null}
r -t 0.695280000000001 -s 7 -d 0 -p ack -e 40 -c 0 -i 27 -a 0 -x {2.0 0.0 12 ------- null}
h -t 0.695280000000001 -s 0 -d 7 -p tcp -e 1040 -c 0 -i 40 -a 0 -x {0.0 2.0 25 ------- null}
h -t 0.695280000000001 -s 0 -d 7 -p tcp -e 1040 -c 0 -i 41 -a 0 -x {0.0 2.0 26 ------- null}
+ -t 0.696752 -s 0 -d 7 -p tcp -e 1040 -c 0 -i 36 -a 0 -x {0.0 2.0 21 ------- null}
+ -t 0.696752 -s 0 -d 7 -p tcp -e 1040 -c 0 -i 37 -a 0 -x {0.0 2.0 22 ------- null}
- -t 0.699264000000001 -s 0 -d 7 -p tcp -e 1040 -c 0 -i 33 -a 0 -x {0.0 2.0 18 ------- null}
h -t 0.699264000000001 -s 0 -d 7 -p tcp -e 1040 -c 0 -i 33 -a 0 -x {0.0 2.0 -1 ------- null}
r -t 0.699612000000001 -s 7 -d 2 -p tcp -e 1040 -c 0 -i 28 -a 0 -x {0.0 2.0 15 ------- null}
h -t 0.699612000000001 -s 2 -d 7 -p ack -e 40 -c 0 -i 42 -a 0 -x {2.0 0.0 15 ------- null}
r -t 0.700312000000001 -s 7 -d 0 -p ack -e 40 -c 0 -i 30 -a 0 -x {2.0 0.0 13 ------- null}
h -t 0.700312000000001 -s 0 -d 7 -p tcp -e 1040 -c 0 -i 43 -a 0 -x {0.0 2.0 27 ------- null}
h -t 0.700312000000001 -s 0 -d 7 -p tcp -e 1040 -c 0 -i 44 -a 0 -x {0.0 2.0 28 ------- null}
+ -t 0.701016000000001 -s 0 -d 7 -p tcp -e 1040 -c 0 -i 38 -a 0 -x {0.0 2.0 23 ------- null}
+ -t 0.701016000000001 -s 0 -d 7 -p tcp -e 1040 -c 0 -i 39 -a 0 -x {0.0 2.0 24 ------- null}
- -t 0.703528000000001 -s 0 -d 7 -p tcp -e 1040 -c 0 -i 34 -a 0 -x {0.0 2.0 19 ------- null}
h -t 0.703528000000001 -s 0 -d 7 -p tcp -e 1040 -c 0 -i 34 -a 0 -x {0.0 2.0 -1 ------- null}
r -t 0.704580000000001 -s 7 -d 2 -p tcp -e 1040 -c 0 -i 29 -a 0 -x {0.0 2.0 16 ------- null}
h -t 0.704580000000001 -s 2 -d 7 -p ack -e 40 -c 0 -i 45 -a 0 -x {2.0 0.0 16 ------- null}
r -t 0.704952000000001 -s 7 -d 0 -p ack -e 40 -c 0 -i 31 -a 0 -x {2.0 0.0 14 ------- null}
h -t 0.704952000000001 -s 0 -d 7 -p tcp -e 1040 -c 0 -i 46 -a 0 -x {0.0 2.0 29 ------- null}
h -t 0.704952000000001 -s 0 -d 7 -p tcp -e 1040 -c 0 -i 47 -a 0 -x {0.0 2.0 30 ------- null}
+ -t 0.705280000000001 -s 0 -d 7 -p tcp -e 1040 -c 0 -i 40 -a 0 -x {0.0 2.0 25 ------- null}
+ -t 0.705280000000001 -s 0 -d 7 -p tcp -e 1040 -c 0 -i 41 -a 0 -x {0.0 2.0 26 ------- null}
- -t 0.707792000000001 -s 0 -d 7 -p tcp -e 1040 -c 0 -i 35 -a 0 -x {0.0 2.0 20 ------- null}
h -t 0.707792000000001 -s 0 -d 7 -p tcp -e 1040 -c 0 -i 35 -a 0 -x {0.0 2.0 -1 ------- null}
r -t 0.709220000000001 -s 7 -d 2 -p tcp -e 1040 -c 0 -i 32 -a 0 -x {0.0 2.0 17 ------- null}
h -t 0.709220000000001 -s 2 -d 7 -p ack -e 40 -c 0 -i 48 -a 0 -x {2.0 0.0 17 ------- null}
+ -t 0.709612000000001 -s 2 -d 7 -p ack -e 40 -c 0 -i 42 -a 0 -x {2.0 0.0 15 ------- null}
- -t 0.709612000000001 -s 2 -d 7 -p ack -e 40 -c 0 -i 42 -a 0 -x {2.0 0.0 15 ------- null}
h -t 0.709612000000001 -s 2 -d 7 -p ack -e 40 -c 0 -i 42 -a 0 -x {2.0 0.0 -1 ------- null}
+ -t 0.710312000000001 -s 0 -d 7 -p tcp -e 1040 -c 0 -i 43 -a 0 -x {0.0 2.0 27 ------- null}
+ -t 0.710312000000001 -s 0 -d 7 -p tcp -e 1040 -c 0 -i 44 -a 0 -x {0.0 2.0 28 ------- null}
- -t 0.712056000000001 -s 0 -d 7 -p tcp -e 1040 -c 0 -i 36 -a 0 -x {0.0 2.0 21 ------- null}
h -t 0.712056000000001 -s 0 -d 7 -p tcp -e 1040 -c 0 -i 36 -a 0 -x {0.0 2.0 -1 ------- null}
r -t 0.713484000000001 -s 7 -d 2 -p tcp -e 1040 -c 0 -i 33 -a 0 -x {0.0 2.0 18 ------- null}
h -t 0.713484000000001 -s 2 -d 7 -p ack -e 40 -c 0 -i 49 -a 0 -x {2.0 0.0 18 ------- null}
+ -t 0.714580000000001 -s 2 -d 7 -p ack -e 40 -c 0 -i 45 -a 0 -x {2.0 0.0 16 ------- null}
- -t 0.714580000000001 -s 2 -d 7 -p ack -e 40 -c 0 -i 45 -a 0 -x {2.0 0.0 16 ------- null}
h -t 0.714580000000001 -s 2 -d 7 -p ack -e 40 -c 0 -i 45 -a 0 -x {2.0 0.0 -1 ------- null}
+ -t 0.714952000000001 -s 0 -d 7 -p tcp -e 1040 -c 0 -i 46 -a 0 -x {0.0 2.0 29 ------- null}
+ -t 0.714952000000001 -s 0 -d 7 -p tcp -e 1040 -c 0 -i 47 -a 0 -x {0.0 2.0 30 ------- null}
- -t 0.717224000000001 -s 0 -d 7 -p tcp -e 1040 -c 0 -i 37 -a 0 -x {0.0 2.0 22 ------- null}
h -t 0.717224000000001 -s 0 -d 7 -p tcp -e 1040 -c 0 -i 37 -a 0 -x {0.0 2.0 -1 ------- null}
r -t 0.717748000000001 -s 7 -d 2 -p tcp -e 1040 -c 0 -i 34 -a 0 -x {0.0 2.0 19 ------- null}
h -t 0.717748000000001 -s 2 -d 7 -p ack -e 40 -c 0 -i 50 -a 0 -x {2.0 0.0 19 ------- null}
+ -t 0.719220000000001 -s 2 -d 7 -p ack -e 40 -c 0 -i 48 -a 0 -x {2.0 0.0 17 ------- null}
- -t 0.721880000000001 -s 0 -d 7 -p tcp -e 1040 -c 0 -i 38 -a 0 -x {0.0 2.0 23 ------- null}
h -t 0.721880000000001 -s 0 -d 7 -p tcp -e 1040 -c 0 -i 38 -a 0 -x {0.0 2.0 -1 ------- null}
r -t 0.722012000000001 -s 7 -d 2 -p tcp -e 1040 -c 0 -i 35 -a 0 -x {0.0 2.0 20 ------- null}
h -t 0.722012000000001 -s 2 -d 7 -p ack -e 40 -c 0 -i 51 -a 0 -x {2.0 0.0 20 ------- null}
r -t 0.722456000000001 -s 7 -d 0 -p ack -e 40 -c 0 -i 42 -a 0 -x {2.0 0.0 15 ------- null}
h -t 0.722456000000001 -s 0 -d 7 -p tcp -e 1040 -c 0 -i 52 -a 0 -x {0.0 2.0 31 ------- null}
h -t 0.722456000000001 -s 0 -d 7 -p tcp -e 1040 -c 0 -i 53 -a 0 -x {0.0 2.0 32 ------- null}
+ -t 0.723484000000001 -s 2 -d 7 -p ack -e 40 -c 0 -i 49 -a 0 -x {2.0 0.0 18 ------- null}
- -t 0.726472000000001 -s 0 -d 7 -p tcp -e 1040 -c 0 -i 39 -a 0 -x {0.0 2.0 24 ------- null}
h -t 0.726472000000001 -s 0 -d 7 -p tcp -e 1040 -c 0 -i 39 -a 0 -x {0.0 2.0 -1 ------- null}
r -t 0.727180000000001 -s 7 -d 2 -p tcp -e 1040 -c 0 -i 36 -a 0 -x {0.0 2.0 21 ------- null}
h -t 0.727180000000001 -s 2 -d 7 -p ack -e 40 -c 0 -i 54 -a 0 -x {2.0 0.0 21 ------- null}
+ -t 0.727748000000001 -s 2 -d 7 -p ack -e 40 -c 0 -i 50 -a 0 -x {2.0 0.0 19 ------- null}
- -t 0.730808000000001 -s 0 -d 7 -p tcp -e 1040 -c 0 -i 40 -a 0 -x {0.0 2.0 25 ------- null}
h -t 0.730808000000001 -s 0 -d 7 -p tcp -e 1040 -c 0 -i 40 -a 0 -x {0.0 2.0 -1 ------- null}
r -t 0.731836000000001 -s 7 -d 2 -p tcp -e 1040 -c 0 -i 37 -a 0 -x {0.0 2.0 22 ------- null}
h -t 0.731836000000001 -s 2 -d 7 -p ack -e 40 -c 0 -i 55 -a 0 -x {2.0 0.0 22 ------- null}
+ -t 0.732012000000001 -s 2 -d 7 -p ack -e 40 -c 0 -i 51 -a 0 -x {2.0 0.0 20 ------- null}
+ -t 0.732456000000001 -s 0 -d 7 -p tcp -e 1040 -c 0 -i 52 -a 0 -x {0.0 2.0 31 ------- null}
+ -t 0.732456000000001 -s 0 -d 7 -p tcp -e 1040 -c 0 -i 53 -a 0 -x {0.0 2.0 32 ------- null}
- -t 0.735400000000001 -s 0 -d 7 -p tcp -e 1040 -c 0 -i 41 -a 0 -x {0.0 2.0 26 ------- null}
h -t 0.735400000000001 -s 0 -d 7 -p tcp -e 1040 -c 0 -i 41 -a 0 -x {0.0 2.0 -1 ------- null}
r -t 0.736428000000001 -s 7 -d 2 -p tcp -e 1040 -c 0 -i 38 -a 0 -x {0.0 2.0 23 ------- null}
h -t 0.736428000000001 -s 2 -d 7 -p ack -e 40 -c 0 -i 56 -a 0 -x {2.0 0.0 23 ------- null}
+ -t 0.737180000000001 -s 2 -d 7 -p ack -e 40 -c 0 -i 54 -a 0 -x {2.0 0.0 21 ------- null}
- -t 0.739992000000001 -s 0 -d 7 -p tcp -e 1040 -c 0 -i 43 -a 0 -x {0.0 2.0 27 ------- null}
h -t 0.739992000000001 -s 0 -d 7 -p tcp -e 1040 -c 0 -i 43 -a 0 -x {0.0 2.0 -1 ------- null}
r -t 0.740764000000001 -s 7 -d 2 -p tcp -e 1040 -c 0 -i 39 -a 0 -x {0.0 2.0 24 ------- null}
h -t 0.740764000000001 -s 2 -d 7 -p ack -e 40 -c 0 -i 57 -a 0 -x {2.0 0.0 24 ------- null}
+ -t 0.741836000000001 -s 2 -d 7 -p ack -e 40 -c 0 -i 55 -a 0 -x {2.0 0.0 22 ------- null}
- -t 0.744256000000001 -s 0 -d 7 -p tcp -e 1040 -c 0 -i 44 -a 0 -x {0.0 2.0 28 ------- null}
h -t 0.744256000000001 -s 0 -d 7 -p tcp -e 1040 -c 0 -i 44 -a 0 -x {0.0 2.0 -1 ------- null}
r -t 0.745356000000001 -s 7 -d 2 -p tcp -e 1040 -c 0 -i 40 -a 0 -x {0.0 2.0 25 ------- null}
h -t 0.745356000000001 -s 2 -d 7 -p ack -e 40 -c 0 -i 58 -a 0 -x {2.0 0.0 25 ------- null}
+ -t 0.746428000000001 -s 2 -d 7 -p ack -e 40 -c 0 -i 56 -a 0 -x {2.0 0.0 23 ------- null}
- -t 0.748592000000001 -s 0 -d 7 -p tcp -e 1040 -c 0 -i 46 -a 0 -x {0.0 2.0 29 ------- null}
h -t 0.748592000000001 -s 0 -d 7 -p tcp -e 1040 -c 0 -i 46 -a 0 -x {0.0 2.0 -1 ------- null}
r -t 0.749948000000001 -s 7 -d 2 -p tcp -e 1040 -c 0 -i 41 -a 0 -x {0.0 2.0 26 ------- null}
h -t 0.749948000000001 -s 2 -d 7 -p ack -e 40 -c 0 -i 59 -a 0 -x {2.0 0.0 26 ------- null}
+ -t 0.750764000000001 -s 2 -d 7 -p ack -e 40 -c 0 -i 57 -a 0 -x {2.0 0.0 24 ------- null}
- -t 0.752856000000001 -s 0 -d 7 -p tcp -e 1040 -c 0 -i 47 -a 0 -x {0.0 2.0 30 ------- null}
h -t 0.752856000000001 -s 0 -d 7 -p tcp -e 1040 -c 0 -i 47 -a 0 -x {0.0 2.0 -1 ------- null}
r -t 0.754212000000001 -s 7 -d 2 -p tcp -e 1040 -c 0 -i 43 -a 0 -x {0.0 2.0 27 ------- null}
h -t 0.754212000000001 -s 2 -d 7 -p ack -e 40 -c 0 -i 60 -a 0 -x {2.0 0.0 27 ------- null}
+ -t 0.755356000000001 -s 2 -d 7 -p ack -e 40 -c 0 -i 58 -a 0 -x {2.0 0.0 25 ------- null}
- -t 0.757120000000001 -s 0 -d 7 -p tcp -e 1040 -c 0 -i 52 -a 0 -x {0.0 2.0 31 ------- null}
h -t 0.757120000000001 -s 0 -d 7 -p tcp -e 1040 -c 0 -i 52 -a 0 -x {0.0 2.0 -1 ------- null}
r -t 0.758548000000001 -s 7 -d 2 -p tcp -e 1040 -c 0 -i 44 -a 0 -x {0.0 2.0 28 ------- null}
h -t 0.758548000000001 -s 2 -d 7 -p ack -e 40 -c 0 -i 61 -a 0 -x {2.0 0.0 28 ------- null}
+ -t 0.759948000000001 -s 2 -d 7 -p ack -e 40 -c 0 -i 59 -a 0 -x {2.0 0.0 26 ------- null}
- -t 0.761384000000001 -s 0 -d 7 -p tcp -e 1040 -c 0 -i 53 -a 0 -x {0.0 2.0 32 ------- null}
h -t 0.761384000000001 -s 0 -d 7 -p tcp -e 1040 -c 0 -i 53 -a 0 -x {0.0 2.0 -1 ------- null}
r -t 0.762812000000001 -s 7 -d 2 -p tcp -e 1040 -c 0 -i 46 -a 0 -x {0.0 2.0 29 ------- null}
h -t 0.762812000000001 -s 2 -d 7 -p ack -e 40 -c 0 -i 62 -a 0 -x {2.0 0.0 29 ------- null}
+ -t 0.764212000000001 -s 2 -d 7 -p ack -e 40 -c 0 -i 60 -a 0 -x {2.0 0.0 27 ------- null}
r -t 0.767076000000001 -s 7 -d 2 -p tcp -e 1040 -c 0 -i 47 -a 0 -x {0.0 2.0 30 ------- null}
h -t 0.767076000000001 -s 2 -d 7 -p ack -e 40 -c 0 -i 63 -a 0 -x {2.0 0.0 30 ------- null}
+ -t 0.768548000000001 -s 2 -d 7 -p ack -e 40 -c 0 -i 61 -a 0 -x {2.0 0.0 28 ------- null}
r -t 0.771340000000001 -s 7 -d 2 -p tcp -e 1040 -c 0 -i 52 -a 0 -x {0.0 2.0 31 ------- null}
h -t 0.771340000000001 -s 2 -d 7 -p ack -e 40 -c 0 -i 64 -a 0 -x {2.0 0.0 31 ------- null}
- -t 0.771764000000001 -s 2 -d 7 -p ack -e 40 -c 0 -i 48 -a 0 -x {2.0 0.0 17 ------- null}
h -t 0.771764000000001 -s 2 -d 7 -p ack -e 40 -c 0 -i 48 -a 0 -x {2.0 0.0 -1 ------- null}
- -t 0.772068000000001 -s 2 -d 7 -p ack -e 40 -c 0 -i 49 -a 0 -x {2.0 0.0 18 ------- null}
h -t 0.772068000000001 -s 2 -d 7 -p ack -e 40 -c 0 -i 49 -a 0 -x {2.0 0.0 -1 ------- null}
- -t 0.772372000000001 -s 2 -d 7 -p ack -e 40 -c 0 -i 50 -a 0 -x {2.0 0.0 19 ------- null}
h -t 0.772372000000001 -s 2 -d 7 -p ack -e 40 -c 0 -i 50 -a 0 -x {2.0 0.0 -1 ------- null}
- -t 0.772676000000001 -s 2 -d 7 -p ack -e 40 -c 0 -i 51 -a 0 -x {2.0 0.0 20 ------- null}
h -t 0.772676000000001 -s 2 -d 7 -p ack -e 40 -c 0 -i 51 -a 0 -x {2.0 0.0 -1 ------- null}
+ -t 0.772812000000001 -s 2 -d 7 -p ack -e 40 -c 0 -i 62 -a 0 -x {2.0 0.0 29 ------- null}
- -t 0.772980000000002 -s 2 -d 7 -p ack -e 40 -c 0 -i 54 -a 0 -x {2.0 0.0 21 ------- null}
h -t 0.772980000000002 -s 2 -d 7 -p ack -e 40 -c 0 -i 54 -a 0 -x {2.0 0.0 -1 ------- null}
- -t 0.773284000000002 -s 2 -d 7 -p ack -e 40 -c 0 -i 55 -a 0 -x {2.0 0.0 22 ------- null}
h -t 0.773284000000002 -s 2 -d 7 -p ack -e 40 -c 0 -i 55 -a 0 -x {2.0 0.0 -1 ------- null}
- -t 0.773588000000002 -s 2 -d 7 -p ack -e 40 -c 0 -i 56 -a 0 -x {2.0 0.0 23 ------- null}
h -t 0.773588000000002 -s 2 -d 7 -p ack -e 40 -c 0 -i 56 -a 0 -x {2.0 0.0 -1 ------- null}
- -t 0.773892000000002 -s 2 -d 7 -p ack -e 40 -c 0 -i 57 -a 0 -x {2.0 0.0 24 ------- null}
h -t 0.773892000000002 -s 2 -d 7 -p ack -e 40 -c 0 -i 57 -a 0 -x {2.0 0.0 -1 ------- null}
- -t 0.774196000000002 -s 2 -d 7 -p ack -e 40 -c 0 -i 58 -a 0 -x {2.0 0.0 25 ------- null}
h -t 0.774196000000002 -s 2 -d 7 -p ack -e 40 -c 0 -i 58 -a 0 -x {2.0 0.0 -1 ------- null}
- -t 0.774500000000002 -s 2 -d 7 -p ack -e 40 -c 0 -i 59 -a 0 -x {2.0 0.0 26 ------- null}
h -t 0.774500000000002 -s 2 -d 7 -p ack -e 40 -c 0 -i 59 -a 0 -x {2.0 0.0 -1 ------- null}
- -t 0.774804000000002 -s 2 -d 7 -p ack -e 40 -c 0 -i 60 -a 0 -x {2.0 0.0 27 ------- null}
h -t 0.774804000000002 -s 2 -d 7 -p ack -e 40 -c 0 -i 60 -a 0 -x {2.0 0.0 -1 ------- null}
- -t 0.775108000000002 -s 2 -d 7 -p ack -e 40 -c 0 -i 61 -a 0 -x {2.0 0.0 28 ------- null}
h -t 0.775108000000002 -s 2 -d 7 -p ack -e 40 -c 0 -i 61 -a 0 -x {2.0 0.0 -1 ------- null}
- -t 0.775412000000002 -s 2 -d 7 -p ack -e 40 -c 0 -i 62 -a 0 -x {2.0 0.0 29 ------- null}
h -t 0.775412000000002 -s 2 -d 7 -p ack -e 40 -c 0 -i 62 -a 0 -x {2.0 0.0 -1 ------- null}
r -t 0.775604000000001 -s 7 -d 2 -p tcp -e 1040 -c 0 -i 53 -a 0 -x {0.0 2.0 32 ------- null}
h -t 0.775604000000001 -s 2 -d 7 -p ack -e 40 -c 0 -i 65 -a 0 -x {2.0 0.0 32 ------- null}
+ -t 0.777076000000001 -s 2 -d 7 -p ack -e 40 -c 0 -i 63 -a 0 -x {2.0 0.0 30 ------- null}
- -t 0.777076000000001 -s 2 -d 7 -p ack -e 40 -c 0 -i 63 -a 0 -x {2.0 0.0 30 ------- null}
h -t 0.777076000000001 -s 2 -d 7 -p ack -e 40 -c 0 -i 63 -a 0 -x {2.0 0.0 -1 ------- null}
+ -t 0.781340000000001 -s 2 -d 7 -p ack -e 40 -c 0 -i 64 -a 0 -x {2.0 0.0 31 ------- null}
- -t 0.781340000000001 -s 2 -d 7 -p ack -e 40 -c 0 -i 64 -a 0 -x {2.0 0.0 31 ------- null}
h -t 0.781340000000001 -s 2 -d 7 -p ack -e 40 -c 0 -i 64 -a 0 -x {2.0 0.0 -1 ------- null}
r -t 0.781720000000001 -s 7 -d 0 -p ack -e 40 -c 0 -i 45 -a 0 -x {2.0 0.0 16 ------- null}
h -t 0.781720000000001 -s 0 -d 7 -p tcp -e 1040 -c 0 -i 66 -a 0 -x {0.0 2.0 33 ------- null}
h -t 0.781720000000001 -s 0 -d 7 -p tcp -e 1040 -c 0 -i 67 -a 0 -x {0.0 2.0 34 ------- null}
r -t 0.782024000000001 -s 7 -d 0 -p ack -e 40 -c 0 -i 48 -a 0 -x {2.0 0.0 17 ------- null}
h -t 0.782024000000001 -s 0 -d 7 -p tcp -e 1040 -c 0 -i 68 -a 0 -x {0.0 2.0 35 ------- null}
h -t 0.782024000000001 -s 0 -d 7 -p tcp -e 1040 -c 0 -i 69 -a 0 -x {0.0 2.0 36 ------- null}
r -t 0.782328000000001 -s 7 -d 0 -p ack -e 40 -c 0 -i 49 -a 0 -x {2.0 0.0 18 ------- null}
h -t 0.782328000000001 -s 0 -d 7 -p tcp -e 1040 -c 0 -i 70 -a 0 -x {0.0 2.0 37 ------- null}
h -t 0.782328000000001 -s 0 -d 7 -p tcp -e 1040 -c 0 -i 71 -a 0 -x {0.0 2.0 38 ------- null}
r -t 0.782632000000001 -s 7 -d 0 -p ack -e 40 -c 0 -i 50 -a 0 -x {2.0 0.0 19 ------- null}
h -t 0.782632000000001 -s 0 -d 7 -p tcp -e 1040 -c 0 -i 72 -a 0 -x {0.0 2.0 39 ------- null}
r -t 0.782936000000002 -s 7 -d 0 -p ack -e 40 -c 0 -i 51 -a 0 -x {2.0 0.0 20 ------- null}
h -t 0.782936000000002 -s 0 -d 7 -p tcp -e 1040 -c 0 -i 73 -a 0 -x {0.0 2.0 40 ------- null}
r -t 0.783240000000002 -s 7 -d 0 -p ack -e 40 -c 0 -i 54 -a 0 -x {2.0 0.0 21 ------- null}
h -t 0.783240000000002 -s 0 -d 7 -p tcp -e 1040 -c 0 -i 74 -a 0 -x {0.0 2.0 41 ------- null}
r -t 0.783544000000002 -s 7 -d 0 -p ack -e 40 -c 0 -i 55 -a 0 -x {2.0 0.0 22 ------- null}
h -t 0.783544000000002 -s 0 -d 7 -p tcp -e 1040 -c 0 -i 75 -a 0 -x {0.0 2.0 42 ------- null}
r -t 0.783848000000002 -s 7 -d 0 -p ack -e 40 -c 0 -i 56 -a 0 -x {2.0 0.0 23 ------- null}
h -t 0.783848000000002 -s 0 -d 7 -p tcp -e 1040 -c 0 -i 76 -a 0 -x {0.0 2.0 43 ------- null}
r -t 0.784152000000002 -s 7 -d 0 -p ack -e 40 -c 0 -i 57 -a 0 -x {2.0 0.0 24 ------- null}
h -t 0.784152000000002 -s 0 -d 7 -p tcp -e 1040 -c 0 -i 77 -a 0 -x {0.0 2.0 44 ------- null}
r -t 0.784456000000002 -s 7 -d 0 -p ack -e 40 -c 0 -i 58 -a 0 -x {2.0 0.0 25 ------- null}
h -t 0.784456000000002 -s 0 -d 7 -p tcp -e 1040 -c 0 -i 78 -a 0 -x {0.0 2.0 45 ------- null}