h 0.5 0 7 tcp 40 ------- 0 0.0 2.0 0 0
+ 0.51 0 7 tcp 40 ------- 0 0.0 2.0 0 0
- 0.51 0 7 tcp 40 ------- 0 0.0 2.0 0 0
r 0.52026 7 2 tcp 40 ------- 0 0.0 2.0 0 0
h 0.52026 2 7 ack 40 ------- 0 2.0 0.0 0 1
+ 0.53026 2 7 ack 40 ------- 0 2.0 0.0 0 1
- 0.53026 2 7 ack 40 ------- 0 2.0 0.0 0 1
r 0.54052 7 0 ack 40 ------- 0 2.0 0.0 0 1
h 0.54052 0 7 tcp 1040 ------- 0 0.0 2.0 1 2
h 0.54052 0 7 tcp 1040 ------- 0 0.0 2.0 2 3
+ 0.55052 0 7 tcp 1040 ------- 0 0.0 2.0 1 2
- 0.55052 0 7 tcp 1040 ------- 0 0.0 2.0 1 2
+ 0.55052 0 7 tcp 1040 ------- 0 0.0 2.0 2 3
- 0.554784 0 7 tcp 1040 ------- 0 0.0 2.0 2 3
r 0.56474 7 2 tcp 1040 ------- 0 0.0 2.0 1 2
h 0.56474 2 7 ack 40 ------- 0 2.0 0.0 1 4
r 0.569004 7 2 tcp 1040 ------- 0 0.0 2.0 2 3
h 0.569004 2 7 ack 40 ------- 0 2.0 0.0 2 5
+ 0.57474 2 7 ack 40 ------- 0 2.0 0.0 1 4
- 0.57474 2 7 ack 40 ------- 0 2.0 0.0 1 4
+ 0.579004 2 7 ack 40 ------- 0 2.0 0.0 2 5
- 0.579004 2 7 ack 40 ------- 0 2.0 0.0 2 5
r 0.585 7 0 ack 40 ------- 0 2.0 0.0 1 4
h 0.585 0 7 tcp 1040 ------- 0 0.0 2.0 3 6
h 0.585 0 7 tcp 1040 ------- 0 0.0 2.0 4 7
r 0.589264 7 0 ack 40 ------- 0 2.0 0.0 2 5
h 0.589264 0 7 tcp 1040 ------- 0 0.0 2.0 5 8
h 0.589264 0 7 tcp 1040 ------- 0 0.0 2.0 6 9
+ 0.595 0 7 tcp 1040 ------- 0 0.0 2.0 3 6
- 0.595 0 7 tcp 1040 ------- 0 0.0 2.0 3 6
+ 0.595 0 7 tcp 1040 ------- 0 0.0 2.0 4 7
+ 0.599264 0 7 tcp 1040 ------- 0 0.0 2.0 5 8
+ 0.599264 0 7 tcp 1040 ------- 0 0.0 2.0 6 9
- 0.599264 0 7 tcp 1040 ------- 0 0.0 2.0 4 7
- 0.603528 0 7 tcp 1040 ------- 0 0.0 2.0 5 8
- 0.607792 0 7 tcp 1040 ------- 0 0.0 2.0 6 9
r 0.60922 7 2 tcp 1040 ------- 0 0.0 2.0 3 6
h 0.60922 2 7 ack 40 ------- 0 2.0 0.0 3 10
r 0.613484 7 2 tcp 1040 ------- 0 0.0 2.0 4 7
h 0.613484 2 7 ack 40 ------- 0 2.0 0.0 4 11
r 0.617748 7 2 tcp 1040 ------- 0 0.0 2.0 5 8
h 0.617748 2 7 ack 40 ------- 0 2.0 0.0 5 12
+ 0.61922 2 7 ack 40 ------- 0 2.0 0.0 3 10
- 0.61922 2 7 ack 40 ------- 0 2.0 0.0 3 10
r 0.622012 7 2 tcp 1040 ------- 0 0.0 2.0 6 9
h 0.622012 2 7 ack 40 ------- 0 2.0 0.0 6 13
+ 0.623484 2 7 ack 40 ------- 0 2.0 0.0 4 11
- 0.623484 2 7 ack 40 ------- 0 2.0 0.0 4 11
+ 0.627748 2 7 ack 40 ------- 0 2.0 0.0 5 12
- 0.627748 2 7 ack 40 ------- 0 2.0 0.0 5 12
r 0.62948 7 0 ack 40 ------- 0 2.0 0.0 3 10
h 0.62948 0 7 tcp 1040 ------- 0 0.0 2.0 7 14
h 0.62948 0 7 tcp 1040 ------- 0 0.0 2.0 8 15
+ 0.632012 2 7 ack 40 ------- 0 2.0 0.0 6 13
- 0.632012 2 7 ack 40 ------- 0 2.0 0.0 6 13
r 0.633744 7 0 ack 40 ------- 0 2.0 0.0 4 11
h 0.633744 0 7 tcp 1040 ------- 0 0.0 2.0 9 16
h 0.633744 0 7 tcp 1040 ------- 0 0.0 2.0 10 17
r 0.638008 7 0 ack 40 ------- 0 2.0 0.0 5 12
h 0.638008 0 7 tcp 1040 ------- 0 0.0 2.0 11 18
h 0.638008 0 7 tcp 1040 ------- 0 0.0 2.0 12 19
+ 0.63948 0 7 tcp 1040 ------- 0 0.0 2.0 7 14
- 0.63948 0 7 tcp 1040 ------- 0 0.0 2.0 7 14
+ 0.63948 0 7 tcp 1040 ------- 0 0.0 2.0 8 15
r 0.642272 7 0 ack 40 ------- 0 2.0 0.0 6 13
h 0.642272 0 7 tcp 1040 ------- 0 0.0 2.0 13 20
h 0.642272 0 7 tcp 1040 ------- 0 0.0 2.0 14 21
+ 0.643744 0 7 tcp 1040 ------- 0 0.0 2.0 9 16
+ 0.643744 0 7 tcp 1040 ------- 0 0.0 2.0 10 17
- 0.643744 0 7 tcp 1040 ------- 0 0.0 2.0 8 15
+ 0.648008 0 7 tcp 1040 ------- 0 0.0 2.0 11 18
+ 0.648008 0 7 tcp 1040 ------- 0 0.0 2.0 12 19
- 0.648008 0 7 tcp 1040 ------- 0 0.0 2.0 9 16
+ 0.652272 0 7 tcp 1040 ------- 0 0.0 2.0 13 20
+ 0.652272 0 7 tcp 1040 ------- 0 0.0 2.0 14 21
- 0.652272 0 7 tcp 1040 ------- 0 0.0 2.0 10 17
r 0.6537 7 2 tcp 1040 ------- 0 0.0 2.0 7 14
h 0.6537 2 7 ack 40 ------- 0 2.0 0.0 7 22
- 0.656536 0 7 tcp 1040 ------- 0 0.0 2.0 11 18
r 0.657964 7 2 tcp 1040 ------- 0 0.0 2.0 8 15
h 0.657964 2 7 ack 40 ------- 0 2.0 0.0 8 23
- 0.6608 0 7 tcp 1040 ------- 0 0.0 2.0 12 19
r 0.662228 7 2 tcp 1040 ------- 0 0.0 2.0 9 16
h 0.662228 2 7 ack 40 ------- 0 2.0 0.0 9 24
+ 0.6637 2 7 ack 40 ------- 0 2.0 0.0 7 22
- 0.6637 2 7 ack 40 ------- 0 2.0 0.0 7 22
- 0.665064 0 7 tcp 1040 ------- 0 0.0 2.0 13 20
r 0.666492 7 2 tcp 1040 ------- 0 0.0 2.0 10 17
h 0.666492 2 7 ack 40 ------- 0 2.0 0.0 10 25
+ 0.667964 2 7 ack 40 ------- 0 2.0 0.0 8 23
- 0.667964 2 7 ack 40 ------- 0 2.0 0.0 8 23
- 0.669704 0 7 tcp 1040 ------- 0 0.0 2.0 14 21
r 0.670756 7 2 tcp 1040 ------- 0 0.0 2.0 11 18
h 0.670756 2 7 ack 40 ------- 0 2.0 0.0 11 26
+ 0.672228 2 7 ack 40 ------- 0 2.0 0.0 9 24
- 0.674348 2 7 ack 40 ------- 0 2.0 0.0 9 24
r 0.67502 7 2 tcp 1040 ------- 0 0.0 2.0 12 19
h 0.67502 2 7 ack 40 ------- 0 2.0 0.0 12 27
r 0.675392 7 0 ack 40 ------- 0 2.0 0.0 7 22
h 0.675392 0 7 tcp 1040 ------- 0 0.0 2.0 15 28
h 0.675392 0 7 tcp 1040 ------- 0 0.0 2.0 16 29
+ 0.676492 2 7 ack 40 ------- 0 2.0 0.0 10 25
- 0.676492 2 7 ack 40 ------- 0 2.0 0.0 10 25
r 0.67966 7 2 tcp 1040 ------- 0 0.0 2.0 13 20
h 0.67966 2 7 ack 40 ------- 0 2.0 0.0 13 30
+ 0.680756 2 7 ack 40 ------- 0 2.0 0.0 11 26
- 0.680756 2 7 ack 40 ------- 0 2.0 0.0 11 26
r 0.683996 7 2 tcp 1040 ------- 0 0.0 2.0 14 21
h 0.683996 2 7 ack 40 ------- 0 2.0 0.0 14 31
r 0.684304 7 0 ack 40 ------- 0 2.0 0.0 8 23
h 0.684304 0 7 tcp 1040 ------- 0 0.0 2.0 17 32
h 0.684304 0 7 tcp 1040 ------- 0 0.0 2.0 18 33
r 0.684608 7 0 ack 40 ------- 0 2.0 0.0 9 24
h 0.684608 0 7 tcp 1040 ------- 0 0.0 2.0 19 34
h 0.684608 0 7 tcp 1040 ------- 0 0.0 2.0 20 35
+ 0.68502 2 7 ack 40 ------- 0 2.0 0.0 12 27
- 0.68502 2 7 ack 40 ------- 0 2.0 0.0 12 27
+ 0.685392 0 7 tcp 1040 ------- 0 0.0 2.0 15 28
- 0.685392 0 7 tcp 1040 ------- 0 0.0 2.0 15 28
+ 0.685392 0 7 tcp 1040 ------- 0 0.0 2.0 16 29
r 0.686752 7 0 ack 40 ------- 0 2.0 0.0 10 25
h 0.686752 0 7 tcp 1040 ------- 0 0.0 2.0 21 36
h 0.686752 0 7 tcp 1040 ------- 0 0.0 2.0 22 37
- 0.689656 0 7 tcp 1040 ------- 0 0.0 2.0 16 29
+ 0.68966 2 7 ack 40 ------- 0 2.0 0.0 13 30
- 0.68966 2 7 ack 40 ------- 0 2.0 0.0 13 30
r 0.691016 7 0 ack 40 ------- 0 2.0 0.0 11 26
h 0.691016 0 7 tcp 1040 ------- 0 0.0 2.0 23 38
h 0.691016 0 7 tcp 1040 ------- 0 0.0 2.0 24 39
+ 0.693996 2 7 ack 40 ------- 0 2.0 0.0 14 31
- 0.693996 2 7 ack 40 ------- 0 2.0 0.0 14 31
+ 0.694304 0 7 tcp 1040 ------- 0 0.0 2.0 17 32
+ 0.694304 0 7 tcp 1040 ------- 0 0.0 2.0 18 33
+ 0.694608 0 7 tcp 1040 ------- 0 0.0 2.0 19 34
+ 0.694608 0 7 tcp 1040 ------- 0 0.0 2.0 20 35
- 0.694624 0 7 tcp 1040 ------- 0 0.0 2.0 17 32
r 0.69528 7 0 ack 40 ------- 0 2.0 0.0 12 27
h 0.69528 0 7 tcp 1040 ------- 0 0.0 2.0 25 40
h 0.69528 0 7 tcp 1040 ------- 0 0.0 2.0 26 41
+ 0.696752 0 7 tcp 1040 ------- 0 0.0 2.0 21 36
+ 0.696752 0 7 tcp 1040 ------- 0 0.0 2.0 22 37
- 0.699264 0 7 tcp 1040 ------- 0 0.0 2.0 18 33
r 0.699612 7 2 tcp 1040 ------- 0 0.0 2.0 15 28
h 0.699612 2 7 ack 40 ------- 0 2.0 0.0 15 42
r 0.700312 7 0 ack 40 ------- 0 2.0 0.0 13 30
h 0.700312 0 7 tcp 1040 ------- 0 0.0 2.0 27 43
h 0.700312 0 7 tcp 1040 ------- 0 0.0 2.0 28 44
+ 0.701016 0 7 tcp 1040 ------- 0 0.0 2.0 23 38
+ 0.701016 0 7 tcp 1040 ------- 0 0.0 2.0 24 39
- 0.703528 0 7 tcp 1040 ------- 0 0.0 2.0 19 34
r 0.70458 7 2 tcp 1040 ------- 0 0.0 2.0 16 29
h 0.70458 2 7 ack 40 ------- 0 2.0 0.0 16 45
r 0.704952 7 0 ack 40 ------- 0 2.0 0.0 14 31
h 0.704952 0 7 tcp 1040 ------- 0 0.0 2.0 29 46
h 0.704952 0 7 tcp 1040 ------- 0 0.0 2.0 30 47
+ 0.70528 0 7 tcp 1040 ------- 0 0.0 2.0 25 40
+ 0.70528 0 7 tcp 1040 ------- 0 0.0 2.0 26 41
- 0.707792 0 7 tcp 1040 ------- 0 0.0 2.0 20 35
r 0.70922 7 2 tcp 1040 ------- 0 0.0 2.0 17 32
h 0.70922 2 7 ack 40 ------- 0 2.0 0.0 17 48
+ 0.709612 2 7 ack 40 ------- 0 2.0 0.0 15 42
- 0.709612 2 7 ack 40 ------- 0 2.0 0.0 15 42
+ 0.710312 0 7 tcp 1040 ------- 0 0.0 2.0 27 43
+ 0.710312 0 7 tcp 1040 ------- 0 0.0 2.0 28 44
- 0.712056 0 7 tcp 1040 ------- 0 0.0 2.0 21 36
r 0.713484 7 2 tcp 1040 ------- 0 0.0 2.0 18 33
h 0.713484 2 7 ack 40 ------- 0 2.0 0.0 18 49
+ 0.71458 2 7 ack 40 ------- 0 2.0 0.0 16 45
- 0.71458 2 7 ack 40 ------- 0 2.0 0.0 16 45
+ 0.714952 0 7 tcp 1040 ------- 0 0.0 2.0 29 46
+ 0.714952 0 7 tcp 1040 ------- 0 0.0 2.0 30 47
- 0.717224 0 7 tcp 1040 ------- 0 0.0 2.0 22 37
r 0.717748 7 2 tcp 1040 ------- 0 0.0 2.0 19 34
h 0.717748 2 7 ack 40 ------- 0 2.0 0.0 19 50
+ 0.71922 2 7 ack 40 ------- 0 2.0 0.0 17 48
- 0.72188 0 7 tcp 1040 ------- 0 0.0 2.0 23 38
r 0.722012 7 2 tcp 1040 ------- 0 0.0 2.0 20 35
h 0.722012 2 7 ack 40 ------- 0 2.0 0.0 20 51
r 0.722456 7 0 ack 40 ------- 0 2.0 0.0 15 42
h 0.722456 0 7 tcp 1040 ------- 0 0.0 2.0 31 52
h 0.722456 0 7 tcp 1040 ------- 0 0.0 2.0 32 53
+ 0.723484 2 7 ack 40 ------- 0 2.0 0.0 18 49
- 0.726472 0 7 tcp 1040 ------- 0 0.0 2.0 24 39
r 0.72718 7 2 tcp 1040 ------- 0 0.0 2.0 21 36
h 0.72718 2 7 ack 40 ------- 0 2.0 0.0 21 54
+ 0.727748 2 7 ack 40 ------- 0 2.0 0.0 19 50
- 0.730808 0 7 tcp 1040 ------- 0 0.0 2.0 25 40
r 0.731836 7 2 tcp 1040 ------- 0 0.0 2.0 22 37
h 0.731836 2 7 ack 40 ------- 0 2.0 0.0 22 55
+ 0.732012 2 7 ack 40 ------- 0 2.0 0.0 20 51
+ 0.732456 0 7 tcp 1040 ------- 0 0.0 2.0 31 52
+ 0.732456 0 7 tcp 1040 ------- 0 0.0 2.0 32 53
- 0.7354 0 7 tcp 1040 ------- 0 0.0 2.0 26 41
r 0.736428 7 2 tcp 1040 ------- 0 0.0 2.0 23 38
h 0.736428 2 7 ack 40 ------- 0 2.0 0.0 23 56
+ 0.73718 2 7 ack 40 ------- 0 2.0 0.0 21 54
- 0.739992 0 7 tcp 1040 ------- 0 0.0 2.0 27 43
r 0.740764 7 2 tcp 1040 ------- 0 0.0 2.0 24 39
h 0.740764 2 7 ack 40 ------- 0 2.0 0.0 24 57
+ 0.741836 2 7 ack 40 ------- 0 2.0 0.0 22 55
- 0.744256 0 7 tcp 1040 ------- 0 0.0 2.0 28 44
r 0.745356 7 2 tcp 1040 ------- 0 0.0 2.0 25 40
h 0.745356 2 7 ack 40 ------- 0 2.0 0.0 25 58
+ 0.746428 2 7 ack 40 ------- 0 2.0 0.0 23 56
- 0.748592 0 7 tcp 1040 ------- 0 0.0 2.0 29 46
r 0.749948 7 2 tcp 1040 ------- 0 0.0 2.0 26 41
h 0.749948 2 7 ack 40 ------- 0 2.0 0.0 26 59
+ 0.750764 2 7 ack 40 ------- 0 2.0 0.0 24 57
- 0.752856 0 7 tcp 1040 ------- 0 0.0 2.0 30 47
r 0.754212 7 2 tcp 1040 ------- 0 0.0 2.0 27 43
h 0.754212 2 7 ack 40 ------- 0 2.0 0.0 27 60
+ 0.755356 2 7 ack 40 ------- 0 2.0 0.0 25 58
- 0.75712 0 7 tcp 1040 ------- 0 0.0 2.0 31 52
r 0.758548 7 2 tcp 1040 ------- 0 0.0 2.0 28 44
h 0.758548 2 7 ack 40 ------- 0 2.0 0.0 28 61
+ 0.759948 2 7 ack 40 ------- 0 2.0 0.0 26 59
- 0.761384 0 7 tcp 1040 ------- 0 0.0 2.0 32 53
r 0.762812 7 2 tcp 1040 ------- 0 0.0 2.0 29 46
h 0.762812 2 7 ack 40 ------- 0 2.0 0.0 29 62
+ 0.764212 2 7 ack 40 ------- 0 2.0 0.0 27 60
r 0.767076 7 2 tcp 1040 ------- 0 0.0 2.0 30 47
h 0.767076 2 7 ack 40 ------- 0 2.0 0.0 30 63
+ 0.768548 2 7 ack 40 ------- 0 2.0 0.0 28 61
r 0.77134 7 2 tcp 1040 ------- 0 0.0 2.0 31 52
h 0.77134 2 7 ack 40 ------- 0 2.0 0.0 31 64
- 0.771764 2 7 ack 40 ------- 0 2.0 0.0 17 48
- 0.772068 2 7 ack 40 ------- 0 2.0 0.0 18 49
- 0.772372 2 7 ack 40 ------- 0 2.0 0.0 19 50
- 0.772676 2 7 ack 40 ------- 0 2.0 0.0 20 51
+ 0.772812 2 7 ack 40 ------- 0 2.0 0.0 29 62
- 0.77298 2 7 ack 40 ------- 0 2.0 0.0 21 54
- 0.773284 2 7 ack 40 ------- 0 2.0 0.0 22 55
- 0.773588 2 7 ack 40 ------- 0 2.0 0.0 23 56
- 0.773892 2 7 ack 40 ------- 0 2.0 0.0 24 57
- 0.774196 2 7 ack 40 ------- 0 2.0 0.0 25 58
- 0.7745 2 7 ack 40 ------- 0 2.0 0.0 26 59
- 0.774804 2 7 ack 40 ------- 0 2.0 0.0 27 60
- 0.775108 2 7 ack 40 ------- 0 2.0 0.0 28 61
- 0.775412 2 7 ack 40 ------- 0 2.0 0.0 29 62
r 0.775604 7 2 tcp 1040 ------- 0 0.0 2.0 32 53
h 0.775604 2 7 ack 40 ------- 0 2.0 0.0 32 65
+ 0.777076 2 7 ack 40 ------- 0 2.0 0.0 30 63
- 0.777076 2 7 ack 40 ------- 0 2.0 0.0 30 63
+ 0.78134 2 7 ack 40 ------- 0 2.0 0.0 31 64
- 0.78134 2 7 ack 40 ------- 0 2.0 0.0 31 64
r 0.78172 7 0 ack 40 ------- 0 2.0 0.0 16 45
h 0.78172 0 7 tcp 1040 ------- 0 0.0 2.0 33 66
h 0.78172 0 7 tcp 1040 ------- 0 0.0 2.0 34 67
r 0.782024 7 0 ack 40 ------- 0 2.0 0.0 17 48
h 0.782024 0 7 tcp 1040 ------- 0 0.0 2.0 35 68
h 0.782024 0 7 tcp 1040 ------- 0 0.0 2.0 36 69
r 0.782328 7 0 ack 40 ------- 0 2.0 0.0 18 49
h 0.782328 0 7 tcp 1040 ------- 0 0.0 2.0 37 70
h 0.782328 0 7 tcp 1040 ------- 0 0.0 2.0 38 71
r 0.782632 7 0 ack 40 ------- 0 2.0 0.0 19 50
h 0.782632 0 7 tcp 1040 ------- 0 0.0 2.0 39 72
r 0.782936 7 0 ack 40 ------- 0 2.0 0.0 20 51
h 0.782936 0 7 tcp 1040 ------- 0 0.0 2.0 40 73
r 0.78324 7 0 ack 40 ------- 0 2.0 0.0 21 54
h 0.78324 0 7 tcp 1040 ------- 0 0.0 2.0 41 74
r 0.783544 7 0 ack 40 ------- 0 2.0 0.0 22 55
h 0.783544 0 7 tcp 1040 ------- 0 0.0 2.0 42 75
r 0.783848 7 0 ack 40 ------- 0 2.0 0.0 23 56
h 0.783848 0 7 tcp 1040 ------- 0 0.0 2.0 43 76
r 0.784152 7 0 ack 40 ------- 0 2.0 0.0 24 57
h 0.784152 0 7 tcp 1040 ------- 0 0.0 2.0 44 77
r 0.784456 7 0 ack 40 ------- 0 2.0 0.0 25 58
h 0.784456 0 7 tcp 1040 ------- 0 0.0 2.0 45 78
r 0.78476 7 0 ack 40 ------- 0 2.0 0.0 26 59
h 0.78476 0 7 tcp 1040 ------- 0 0.0 2.0 46 79
r 0.785064 7 0 ack 40 ------- 0 2.0 0.0 27 60
h 0.785064 0 7 tcp 1040 ------- 0 0.0 2.0 47 80
r 0.785368 7 0 ack 40 ------- 0 2.0 0.0 28 61
h 0.785368 0 7 tcp 1040 ------- 0 0.0 2.0 48 81
+ 0.785604 2 7 ack 40 ------- 0 2.0 0.0 32 65
- 0.785604 2 7 ack 40 ------- 0 2.0 0.0 32 65
r 0.785672 7 0 ack 40 ------- 0 2.0 0.0 29 62
h 0.785672 0 7 tcp 1040 ------- 0 0.0 2.0 49 82
r 0.787336 7 0 ack 40 ------- 0 2.0 0.0 30 63
h 0.787336 0 7 tcp 1040 ------- 0 0.0 2.0 50 83
r 0.7916 7 0 ack 40 ------- 0 2.0 0.0 31 64
h 0.7916 0 7 tcp 1040 ------- 0 0.0 2.0 51 84
+ 0.79172 0 7 tcp 1040 ------- 0 0.0 2.0 33 66
- 0.79172 0 7 tcp 1040 ------- 0 0.0 2.0 33 66
+ 0.79172 0 7 tcp 1040 ------- 0 0.0 2.0 34 67
+ 0.792024 0 7 tcp 1040 ------- 0 0.0 2.0 35 68
+ 0.792024 0 7 tcp 1040 ------- 0 0.0 2.0 36 69
+ 0.792328 0 7 tcp 1040 ------- 0 0.0 2.0 37 70
+ 0.792328 0 7 tcp 1040 ------- 0 0.0 2.0 38 71
+ 0.792632 0 7 tcp 1040 ------- 0 0.0 2.0 39 72
+ 0.792936 0 7 tcp 1040 ------- 0 0.0 2.0 40 73
+ 0.79324 0 7 tcp 1040 ------- 0 0.0 2.0 41 74
+ 0.793544 0 7 tcp 1040 ------- 0 0.0 2.0 42 75
+ 0.793848 0 7 tcp 1040 ------- 0 0.0 2.0 43 76
+ 0.794152 0 7 tcp 1040 ------- 0 0.0 2.0 44 77
+ 0.794456 0 7 tcp 1040 ------- 0 0.0 2.0 45 78
+ 0.79476 0 7 tcp 1040 ------- 0 0.0 2.0 46 79
+ 0.795064 0 7 tcp 1040 ------- 0 0.0 2.0 47 80
+ 0.795368 0 7 tcp 1040 ------- 0 0.0 2.0 48 81
+ 0.795672 0 7 tcp 1040 ------- 0 0.0 2.0 49 82
r 0.795864 7 0 ack 40 ------- 0 2.0 0.0 32 65
h 0.795864 0 7 tcp 1040 ------- 0 0.0 2.0 52 85
- 0.795984 0 7 tcp 1040 ------- 0 0.0 2.0 34 67
+ 0.797336 0 7 tcp 1040 ------- 0 0.0 2.0 50 83
- 0.800248 0 7 tcp 1040 ------- 0 0.0 2.0 35 68
+ 0.8016 0 7 tcp 1040 ------- 0 0.0 2.0 51 84
- 0.804512 0 7 tcp 1040 ------- 0 0.0 2.0 36 69
+ 0.805864 0 7 tcp 1040 ------- 0 0.0 2.0 52 85
r 0.80594 7 2 tcp 1040 ------- 0 0.0 2.0 33 66
h 0.80594 2 7 ack 40 ------- 0 2.0 0.0 33 86
- 0.808776 0 7 tcp 1040 ------- 0 0.0 2.0 37 70
r 0.810204 7 2 tcp 1040 ------- 0 0.0 2.0 34 67
h 0.810204 2 7 ack 40 ------- 0 2.0 0.0 34 87
- 0.81304 0 7 tcp 1040 ------- 0 0.0 2.0 38 71
r 0.814468 7 2 tcp 1040 ------- 0 0.0 2.0 35 68
h 0.814468 2 7 ack 40 ------- 0 2.0 0.0 35 88
+ 0.81594 2 7 ack 40 ------- 0 2.0 0.0 33 86
- 0.81594 2 7 ack 40 ------- 0 2.0 0.0 33 86
- 0.817304 0 7 tcp 1040 ------- 0 0.0 2.0 39 72
r 0.818732 7 2 tcp 1040 ------- 0 0.0 2.0 36 69
h 0.818732 2 7 ack 40 ------- 0 2.0 0.0 36 89
+ 0.820204 2 7 ack 40 ------- 0 2.0 0.0 34 87
- 0.820204 2 7 ack 40 ------- 0 2.0 0.0 34 87
- 0.822728 0 7 tcp 1040 ------- 0 0.0 2.0 40 73
r 0.822996 7 2 tcp 1040 ------- 0 0.0 2.0 37 70
h 0.822996 2 7 ack 40 ------- 0 2.0 0.0 37 90
+ 0.824468 2 7 ack 40 ------- 0 2.0 0.0 35 88
r 0.82726 7 2 tcp 1040 ------- 0 0.0 2.0 38 71
h 0.82726 2 7 ack 40 ------- 0 2.0 0.0 38 91
- 0.827384 0 7 tcp 1040 ------- 0 0.0 2.0 41 74
- 0.827756 2 7 ack 40 ------- 0 2.0 0.0 35 88
r 0.828216 7 0 ack 40 ------- 0 2.0 0.0 33 86
h 0.828216 0 7 tcp 1040 ------- 0 0.0 2.0 53 92
+ 0.828732 2 7 ack 40 ------- 0 2.0 0.0 36 89
- 0.828964 2 7 ack 40 ------- 0 2.0 0.0 36 89
r 0.832684 7 2 tcp 1040 ------- 0 0.0 2.0 39 72
h 0.832684 2 7 ack 40 ------- 0 2.0 0.0 39 93
+ 0.832996 2 7 ack 40 ------- 0 2.0 0.0 37 90
- 0.832996 2 7 ack 40 ------- 0 2.0 0.0 37 90
- 0.834208 0 7 tcp 1040 ------- 0 0.0 2.0 42 75
+ 0.83726 2 7 ack 40 ------- 0 2.0 0.0 38 91
r 0.83734 7 2 tcp 1040 ------- 0 0.0 2.0 40 73
h 0.83734 2 7 ack 40 ------- 0 2.0 0.0 40 94
r 0.837712 7 0 ack 40 ------- 0 2.0 0.0 34 87
h 0.837712 0 7 tcp 1040 ------- 0 0.0 2.0 54 95
+ 0.838216 0 7 tcp 1040 ------- 0 0.0 2.0 53 92
r 0.83892 7 0 ack 40 ------- 0 2.0 0.0 35 88
h 0.83892 0 7 tcp 1040 ------- 0 0.0 2.0 55 96
r 0.839224 7 0 ack 40 ------- 0 2.0 0.0 36 89
h 0.839224 0 7 tcp 1040 ------- 0 0.0 2.0 56 97
- 0.83996 0 7 tcp 1040 ------- 0 0.0 2.0 43 76
- 0.841172 2 7 ack 40 ------- 0 2.0 0.0 38 91
+ 0.842684 2 7 ack 40 ------- 0 2.0 0.0 39 93
- 0.842684 2 7 ack 40 ------- 0 2.0 0.0 39 93
r 0.844164 7 2 tcp 1040 ------- 0 0.0 2.0 41 74
h 0.844164 2 7 ack 40 ------- 0 2.0 0.0 41 98
- 0.847256 0 7 tcp 1040 ------- 0 0.0 2.0 44 77
+ 0.84734 2 7 ack 40 ------- 0 2.0 0.0 40 94
- 0.84734 2 7 ack 40 ------- 0 2.0 0.0 40 94
+ 0.847712 0 7 tcp 1040 ------- 0 0.0 2.0 54 95
+ 0.84892 0 7 tcp 1040 ------- 0 0.0 2.0 55 96
+ 0.849224 0 7 tcp 1040 ------- 0 0.0 2.0 56 97
r 0.849916 7 2 tcp 1040 ------- 0 0.0 2.0 42 75
h 0.849916 2 7 ack 40 ------- 0 2.0 0.0 42 99
r 0.851128 7 0 ack 40 ------- 0 2.0 0.0 37 90
h 0.851128 0 7 tcp 1040 ------- 0 0.0 2.0 57 100
- 0.85152 0 7 tcp 1040 ------- 0 0.0 2.0 45 78
r 0.85176 7 0 ack 40 ------- 0 2.0 0.0 38 91
h 0.85176 0 7 tcp 1040 ------- 0 0.0 2.0 58 101
r 0.852944 7 0 ack 40 ------- 0 2.0 0.0 39 93
h 0.852944 0 7 tcp 1040 ------- 0 0.0 2.0 59 102
+ 0.854164 2 7 ack 40 ------- 0 2.0 0.0 41 98
- 0.856176 0 7 tcp 1040 ------- 0 0.0 2.0 46 79
r 0.857212 7 2 tcp 1040 ------- 0 0.0 2.0 43 76
h 0.857212 2 7 ack 40 ------- 0 2.0 0.0 43 103
+ 0.859916 2 7 ack 40 ------- 0 2.0 0.0 42 99
- 0.860512 0 7 tcp 1040 ------- 0 0.0 2.0 47 80
+ 0.861128 0 7 tcp 1040 ------- 0 0.0 2.0 57 100
r 0.861476 7 2 tcp 1040 ------- 0 0.0 2.0 44 77
h 0.861476 2 7 ack 40 ------- 0 2.0 0.0 44 104
+ 0.86176 0 7 tcp 1040 ------- 0 0.0 2.0 58 101
+ 0.862944 0 7 tcp 1040 ------- 0 0.0 2.0 59 102
- 0.865104 0 7 tcp 1040 ------- 0 0.0 2.0 48 81
r 0.866132 7 2 tcp 1040 ------- 0 0.0 2.0 45 78
h 0.866132 2 7 ack 40 ------- 0 2.0 0.0 45 105
+ 0.867212 2 7 ack 40 ------- 0 2.0 0.0 43 103
- 0.86944 0 7 tcp 1040 ------- 0 0.0 2.0 49 82
r 0.870468 7 2 tcp 1040 ------- 0 0.0 2.0 46 79
h 0.870468 2 7 ack 40 ------- 0 2.0 0.0 46 106
+ 0.871476 2 7 ack 40 ------- 0 2.0 0.0 44 104
- 0.873704 0 7 tcp 1040 ------- 0 0.0 2.0 50 83
r 0.87506 7 2 tcp 1040 ------- 0 0.0 2.0 47 80
h 0.87506 2 7 ack 40 ------- 0 2.0 0.0 47 107
+ 0.876132 2 7 ack 40 ------- 0 2.0 0.0 45 105
- 0.878296 0 7 tcp 1040 ------- 0 0.0 2.0 51 84
r 0.879396 7 2 tcp 1040 ------- 0 0.0 2.0 48 81
h 0.879396 2 7 ack 40 ------- 0 2.0 0.0 48 108
+ 0.880468 2 7 ack 40 ------- 0 2.0 0.0 46 106
- 0.88256 0 7 tcp 1040 ------- 0 0.0 2.0 52 85
r 0.88366 7 2 tcp 1040 ------- 0 0.0 2.0 49 82
h 0.88366 2 7 ack 40 ------- 0 2.0 0.0 49 109
+ 0.88506 2 7 ack 40 ------- 0 2.0 0.0 47 107
- 0.886896 0 7 tcp 1040 ------- 0 0.0 2.0 53 92
r 0.888252 7 2 tcp 1040 ------- 0 0.0 2.0 50 83
h 0.888252 2 7 ack 40 ------- 0 2.0 0.0 50 110
+ 0.889396 2 7 ack 40 ------- 0 2.0 0.0 48 108
- 0.89116 0 7 tcp 1040 ------- 0 0.0 2.0 54 95
r 0.892516 7 2 tcp 1040 ------- 0 0.0 2.0 51 84
h 0.892516 2 7 ack 40 ------- 0 2.0 0.0 51 111
+ 0.89366 2 7 ack 40 ------- 0 2.0 0.0 49 109
- 0.895424 0 7 tcp 1040 ------- 0 0.0 2.0 55 96
r 0.896852 7 2 tcp 1040 ------- 0 0.0 2.0 52 85
h 0.896852 2 7 ack 40 ------- 0 2.0 0.0 52 112
+ 0.898252 2 7 ack 40 ------- 0 2.0 0.0 50 110
- 0.899688 0 7 tcp 1040 ------- 0 0.0 2.0 56 97
r 0.901116 7 2 tcp 1040 ------- 0 0.0 2.0 53 92
h 0.901116 2 7 ack 40 ------- 0 2.0 0.0 53 113
+ 0.902516 2 7 ack 40 ------- 0 2.0 0.0 51 111
- 0.903952 0 7 tcp 1040 ------- 0 0.0 2.0 57 100
r 0.90538 7 2 tcp 1040 ------- 0 0.0 2.0 54 95
h 0.90538 2 7 ack 40 ------- 0 2.0 0.0 54 114
+ 0.906852 2 7 ack 40 ------- 0 2.0 0.0 52 112
- 0.908216 0 7 tcp 1040 ------- 0 0.0 2.0 58 101
r 0.909644 7 2 tcp 1040 ------- 0 0.0 2.0 55 96
h 0.909644 2 7 ack 40 ------- 0 2.0 0.0 55 115
+ 0.911116 2 7 ack 40 ------- 0 2.0 0.0 53 113
- 0.91248 0 7 tcp 1040 ------- 0 0.0 2.0 59 102
r 0.913908 7 2 tcp 1040 ------- 0 0.0 2.0 56 97
h 0.913908 2 7 ack 40 ------- 0 2.0 0.0 56 116
+ 0.91538 2 7 ack 40 ------- 0 2.0 0.0 54 114
- 0.917052 2 7 ack 40 ------- 0 2.0 0.0 41 98
- 0.917356 2 7 ack 40 ------- 0 2.0 0.0 42 99
- 0.91766 2 7 ack 40 ------- 0 2.0 0.0 43 103
- 0.917964 2 7 ack 40 ------- 0 2.0 0.0 44 104
r 0.918172 7 2 tcp 1040 ------- 0 0.0 2.0 57 100
h 0.918172 2 7 ack 40 ------- 0 2.0 0.0 57 117
- 0.918268 2 7 ack 40 ------- 0 2.0 0.0 45 105
- 0.918572 2 7 ack 40 ------- 0 2.0 0.0 46 106
- 0.918876 2 7 ack 40 ------- 0 2.0 0.0 47 107
- 0.91918 2 7 ack 40 ------- 0 2.0 0.0 48 108
- 0.919484 2 7 ack 40 ------- 0 2.0 0.0 49 109
+ 0.919644 2 7 ack 40 ------- 0 2.0 0.0 55 115
- 0.919788 2 7 ack 40 ------- 0 2.0 0.0 50 110
- 0.920092 2 7 ack 40 ------- 0 2.0 0.0 51 111
- 0.920396 2 7 ack 40 ------- 0 2.0 0.0 52 112
- 0.9207 2 7 ack 40 ------- 0 2.0 0.0 53 113
- 0.921004 2 7 ack 40 ------- 0 2.0 0.0 54 114
- 0.921308 2 7 ack 40 ------- 0 2.0 0.0 55 115
r 0.922436 7 2 tcp 1040 ------- 0 0.0 2.0 58 101
h 0.922436 2 7 ack 40 ------- 0 2.0 0.0 58 118
+ 0.923908 2 7 ack 40 ------- 0 2.0 0.0 56 116
- 0.923908 2 7 ack 40 ------- 0 2.0 0.0 56 116
r 0.9267 7 2 tcp 1040 ------- 0 0.0 2.0 59 102
h 0.9267 2 7 ack 40 ------- 0 2.0 0.0 59 119
r 0.927008 7 0 ack 40 ------- 0 2.0 0.0 40 94
h 0.927008 0 7 tcp 1040 ------- 0 0.0 2.0 60 120
r 0.927312 7 0 ack 40 ------- 0 2.0 0.0 41 98
h 0.927312 0 7 tcp 1040 ------- 0 0.0 2.0 61 121
r 0.927616 7 0 ack 40 ------- 0 2.0 0.0 42 99
h 0.927616 0 7 tcp 1040 ------- 0 0.0 2.0 62 122
r 0.92792 7 0 ack 40 ------- 0 2.0 0.0 43 103
h 0.92792 0 7 tcp 1040 ------- 0 0.0 2.0 63 123
+ 0.928172 2 7 ack 40 ------- 0 2.0 0.0 57 117
- 0.928172 2 7 ack 40 ------- 0 2.0 0.0 57 117
r 0.928224 7 0 ack 40 ------- 0 2.0 0.0 44 104
h 0.928224 0 7 tcp 1040 ------- 0 0.0 2.0 64 124
r 0.928528 7 0 ack 40 ------- 0 2.0 0.0 45 105
h 0.928528 0 7 tcp 1040 ------- 0 0.0 2.0 65 125
r 0.928832 7 0 ack 40 ------- 0 2.0 0.0 46 106
h 0.928832 0 7 tcp 1040 ------- 0 0.0 2.0 66 126
r 0.929136 7 0 ack 40 ------- 0 2.0 0.0 47 107
h 0.929136 0 7 tcp 1040 ------- 0 0.0 2.0 67 127
r 0.92944 7 0 ack 40 ------- 0 2.0 0.0 48 108
h 0.92944 0 7 tcp 1040 ------- 0 0.0 2.0 68 128
r 0.929744 7 0 ack 40 ------- 0 2.0 0.0 49 109
h 0.929744 0 7 tcp 1040 ------- 0 0.0 2.0 69 129
r 0.930048 7 0 ack 40 ------- 0 2.0 0.0 50 110
h 0.930048 0 7 tcp 1040 ------- 0 0.0 2.0 70 130
r 0.930352 7 0 ack 40 ------- 0 2.0 0.0 51 111
h 0.930352 0 7 tcp 1040 ------- 0 0.0 2.0 71 131
r 0.930656 7 0 ack 40 ------- 0 2.0 0.0 52 112
h 0.930656 0 7 tcp 1040 ------- 0 0.0 2.0 72 132
r 0.93096 7 0 ack 40 ------- 0 2.0 0.0 53 113
h 0.93096 0 7 tcp 1040 ------- 0 0.0 2.0 73 133
r 0.931264 7 0 ack 40 ------- 0 2.0 0.0 54 114
h 0.931264 0 7 tcp 1040 ------- 0 0.0 2.0 74 134
r 0.931568 7 0 ack 40 ------- 0 2.0 0.0 55 115
h 0.931568 0 7 tcp 1040 ------- 0 0.0 2.0 75 135
+ 0.932436 2 7 ack 40 ------- 0 2.0 0.0 58 118
- 0.932436 2 7 ack 40 ------- 0 2.0 0.0 58 118
r 0.934168 7 0 ack 40 ------- 0 2.0 0.0 56 116
h 0.934168 0 7 tcp 1040 ------- 0 0.0 2.0 76 136
+ 0.9367 2 7 ack 40 ------- 0 2.0 0.0 59 119
- 0.9367 2 7 ack 40 ------- 0 2.0 0.0 59 119
+ 0.937008 0 7 tcp 1040 ------- 0 0.0 2.0 60 120
- 0.937008 0 7 tcp 1040 ------- 0 0.0 2.0 60 120
+ 0.937312 0 7 tcp 1040 ------- 0 0.0 2.0 61 121
+ 0.937616 0 7 tcp 1040 ------- 0 0.0 2.0 62 122
+ 0.93792 0 7 tcp 1040 ------- 0 0.0 2.0 63 123
+ 0.938224 0 7 tcp 1040 ------- 0 0.0 2.0 64 124
r 0.938432 7 0 ack 40 ------- 0 2.0 0.0 57 117
h 0.938432 0 7 tcp 1040 ------- 0 0.0 2.0 77 137
+ 0.938528 0 7 tcp 1040 ------- 0 0.0 2.0 65 125
+ 0.938832 0 7 tcp 1040 ------- 0 0.0 2.0 66 126
+ 0.939136 0 7 tcp 1040 ------- 0 0.0 2.0 67 127
+ 0.93944 0 7 tcp 1040 ------- 0 0.0 2.0 68 128
+ 0.939744 0 7 tcp 1040 ------- 0 0.0 2.0 69 129
+ 0.940048 0 7 tcp 1040 ------- 0 0.0 2.0 70 130
+ 0.940352 0 7 tcp 1040 ------- 0 0.0 2.0 71 131
+ 0.940656 0 7 tcp 1040 ------- 0 0.0 2.0 72 132
+ 0.94096 0 7 tcp 1040 ------- 0 0.0 2.0 73 133
+ 0.941264 0 7 tcp 1040 ------- 0 0.0 2.0 74 134
- 0.941272 0 7 tcp 1040 ------- 0 0.0 2.0 61 121
+ 0.941568 0 7 tcp 1040 ------- 0 0.0 2.0 75 135
r 0.942696 7 0 ack 40 ------- 0 2.0 0.0 58 118
h 0.942696 0 7 tcp 1040 ------- 0 0.0 2.0 78 138
+ 0.944168 0 7 tcp 1040 ------- 0 0.0 2.0 76 136
- 0.945536 0 7 tcp 1040 ------- 0 0.0 2.0 62 122
r 0.94696 7 0 ack 40 ------- 0 2.0 0.0 59 119
h 0.94696 0 7 tcp 1040 ------- 0 0.0 2.0 79 139
+ 0.948432 0 7 tcp 1040 ------- 0 0.0 2.0 77 137
- 0.9498 0 7 tcp 1040 ------- 0 0.0 2.0 63 123
r 0.951228 7 2 tcp 1040 ------- 0 0.0 2.0 60 120
h 0.951228 2 7 ack 40 ------- 0 2.0 0.0 60 140
+ 0.952696 0 7 tcp 1040 ------- 0 0.0 2.0 78 138
- 0.954064 0 7 tcp 1040 ------- 0 0.0 2.0 64 124
r 0.955492 7 2 tcp 1040 ------- 0 0.0 2.0 61 121
h 0.955492 2 7 ack 40 ------- 0 2.0 0.0 61 141
+ 0.95696 0 7 tcp 1040 ------- 0 0.0 2.0 79 139
- 0.958328 0 7 tcp 1040 ------- 0 0.0 2.0 65 125
r 0.959756 7 2 tcp 1040 ------- 0 0.0 2.0 62 122
h 0.959756 2 7 ack 40 ------- 0 2.0 0.0 62 142
+ 0.961228 2 7 ack 40 ------- 0 2.0 0.0 60 140
- 0.961228 2 7 ack 40 ------- 0 2.0 0.0 60 140
- 0.962592 0 7 tcp 1040 ------- 0 0.0 2.0 66 126
r 0.96402 7 2 tcp 1040 ------- 0 0.0 2.0 63 123
h 0.96402 2 7 ack 40 ------- 0 2.0 0.0 63 143
+ 0.965492 2 7 ack 40 ------- 0 2.0 0.0 61 141
- 0.965492 2 7 ack 40 ------- 0 2.0 0.0 61 141
- 0.967816 0 7 tcp 1040 ------- 0 0.0 2.0 67 127
r 0.968284 7 2 tcp 1040 ------- 0 0.0 2.0 64 124
h 0.968284 2 7 ack 40 ------- 0 2.0 0.0 64 144
+ 0.969756 2 7 ack 40 ------- 0 2.0 0.0 62 142
- 0.969756 2 7 ack 40 ------- 0 2.0 0.0 62 142
- 0.972456 0 7 tcp 1040 ------- 0 0.0 2.0 68 128
r 0.972548 7 2 tcp 1040 ------- 0 0.0 2.0 65 125
h 0.972548 2 7 ack 40 ------- 0 2.0 0.0 65 145
r 0.973504 7 0 ack 40 ------- 0 2.0 0.0 60 140
h 0.973504 0 7 tcp 1040 ------- 0 0.0 2.0 80 146
+ 0.97402 2 7 ack 40 ------- 0 2.0 0.0 63 143
- 0.97402 2 7 ack 40 ------- 0 2.0 0.0 63 143
- 0.977624 0 7 tcp 1040 ------- 0 0.0 2.0 69 129
r 0.977772 7 2 tcp 1040 ------- 0 0.0 2.0 66 126
h 0.977772 2 7 ack 40 ------- 0 2.0 0.0 66 147
r 0.978144 7 0 ack 40 ------- 0 2.0 0.0 61 141
h 0.978144 0 7 tcp 1040 ------- 0 0.0 2.0 81 148
+ 0.978284 2 7 ack 40 ------- 0 2.0 0.0 64 144
- 0.978284 2 7 ack 40 ------- 0 2.0 0.0 64 144
- 0.982264 0 7 tcp 1040 ------- 0 0.0 2.0 70 130
r 0.982412 7 2 tcp 1040 ------- 0 0.0 2.0 67 127
h 0.982412 2 7 ack 40 ------- 0 2.0 0.0 67 149
+ 0.982548 2 7 ack 40 ------- 0 2.0 0.0 65 145
r 0.983112 7 0 ack 40 ------- 0 2.0 0.0 62 142
h 0.983112 0 7 tcp 1040 ------- 0 0.0 2.0 82 150
+ 0.983504 0 7 tcp 1040 ------- 0 0.0 2.0 80 146
- 0.9866 0 7 tcp 1040 ------- 0 0.0 2.0 71 131
r 0.98758 7 2 tcp 1040 ------- 0 0.0 2.0 68 128
h 0.98758 2 7 ack 40 ------- 0 2.0 0.0 68 151
+ 0.987772 2 7 ack 40 ------- 0 2.0 0.0 66 147
r 0.987952 7 0 ack 40 ------- 0 2.0 0.0 63 143
h 0.987952 0 7 tcp 1040 ------- 0 0.0 2.0 83 152
+ 0.988144 0 7 tcp 1040 ------- 0 0.0 2.0 81 148
r 0.99222 7 2 tcp 1040 ------- 0 0.0 2.0 69 129
h 0.99222 2 7 ack 40 ------- 0 2.0 0.0 69 153
+ 0.992412 2 7 ack 40 ------- 0 2.0 0.0 67 149
+ 0.993112 0 7 tcp 1040 ------- 0 0.0 2.0 82 150
- 0.993632 0 7 tcp 1040 ------- 0 0.0 2.0 72 132
r 0.996556 7 2 tcp 1040 ------- 0 0.0 2.0 70 130
h 0.996556 2 7 ack 40 ------- 0 2.0 0.0 70 154
+ 0.99758 2 7 ack 40 ------- 0 2.0 0.0 68 151
+ 0.997952 0 7 tcp 1040 ------- 0 0.0 2.0 83 152
- 0.998224 0 7 tcp 1040 ------- 0 0.0 2.0 73 133
+ 1.00222 2 7 ack 40 ------- 0 2.0 0.0 69 153
- 1.002816 0 7 tcp 1040 ------- 0 0.0 2.0 74 134
r 1.003588 7 2 tcp 1040 ------- 0 0.0 2.0 71 131
h 1.003588 2 7 ack 40 ------- 0 2.0 0.0 71 155
+ 1.006556 2 7 ack 40 ------- 0 2.0 0.0 70 154
- 1.00708 0 7 tcp 1040 ------- 0 0.0 2.0 75 135
r 1.00818 7 2 tcp 1040 ------- 0 0.0 2.0 72 132
h 1.00818 2 7 ack 40 ------- 0 2.0 0.0 72 156
- 1.011416 0 7 tcp 1040 ------- 0 0.0 2.0 76 136
r 1.012772 7 2 tcp 1040 ------- 0 0.0 2.0 73 133
h 1.012772 2 7 ack 40 ------- 0 2.0 0.0 73 157
+ 1.013588 2 7 ack 40 ------- 0 2.0 0.0 71 155
- 1.01568 0 7 tcp 1040 ------- 0 0.0 2.0 77 137
r 1.017036 7 2 tcp 1040 ------- 0 0.0 2.0 74 134
h 1.017036 2 7 ack 40 ------- 0 2.0 0.0 74 158
+ 1.01818 2 7 ack 40 ------- 0 2.0 0.0 72 156
- 1.019944 0 7 tcp 1040 ------- 0 0.0 2.0 78 138
r 1.021372 7 2 tcp 1040 ------- 0 0.0 2.0 75 135
h 1.021372 2 7 ack 40 ------- 0 2.0 0.0 75 159
+ 1.022772 2 7 ack 40 ------- 0 2.0 0.0 73 157
- 1.024208 0 7 tcp 1040 ------- 0 0.0 2.0 79 139
r 1.025636 7 2 tcp 1040 ------- 0 0.0 2.0 76 136
h 1.025636 2 7 ack 40 ------- 0 2.0 0.0 76 160
+ 1.027036 2 7 ack 40 ------- 0 2.0 0.0 74 158
- 1.028472 0 7 tcp 1040 ------- 0 0.0 2.0 80 146
r 1.0299 7 2 tcp 1040 ------- 0 0.0 2.0 77 137
h 1.0299 2 7 ack 40 ------- 0 2.0 0.0 77 161
+ 1.031372 2 7 ack 40 ------- 0 2.0 0.0 75 159
- 1.032736 0 7 tcp 1040 ------- 0 0.0 2.0 81 148
r 1.034164 7 2 tcp 1040 ------- 0 0.0 2.0 78 138
h 1.034164 2 7 ack 40 ------- 0 2.0 0.0 78 162
+ 1.035636 2 7 ack 40 ------- 0 2.0 0.0 76 160
- 1.037 0 7 tcp 1040 ------- 0 0.0 2.0 82 150
r 1.038428 7 2 tcp 1040 ------- 0 0.0 2.0 79 139
h 1.038428 2 7 ack 40 ------- 0 2.0 0.0 79 163
+ 1.0399 2 7 ack 40 ------- 0 2.0 0.0 77 161
- 1.041264 0 7 tcp 1040 ------- 0 0.0 2.0 83 152
r 1.042692 7 2 tcp 1040 ------- 0 0.0 2.0 80 146
h 1.042692 2 7 ack 40 ------- 0 2.0 0.0 80 164
+ 1.044164 2 7 ack 40 ------- 0 2.0 0.0 78 162
r 1.046956 7 2 tcp 1040 ------- 0 0.0 2.0 81 148
h 1.046956 2 7 ack 40 ------- 0 2.0 0.0 81 165
+ 1.048428 2 7 ack 40 ------- 0 2.0 0.0 79 163
r 1.05122 7 2 tcp 1040 ------- 0 0.0 2.0 82 150
h 1.05122 2 7 ack 40 ------- 0 2.0 0.0 82 166
+ 1.052692 2 7 ack 40 ------- 0 2.0 0.0 80 164
r 1.055556 7 2 tcp 1040 ------- 0 0.0 2.0 83 152
h 1.055556 2 7 ack 40 ------- 0 2.0 0.0 83 167
+ 1.056956 2 7 ack 40 ------- 0 2.0 0.0 81 165
+ 1.06122 2 7 ack 40 ------- 0 2.0 0.0 82 166
+ 1.065556 2 7 ack 40 ------- 0 2.0 0.0 83 167
- 1.082852 2 7 ack 40 ------- 0 2.0 0.0 65 145
- 1.083156 2 7 ack 40 ------- 0 2.0 0.0 66 147
- 1.08346 2 7 ack 40 ------- 0 2.0 0.0 67 149
- 1.083764 2 7 ack 40 ------- 0 2.0 0.0 68 151
- 1.084068 2 7 ack 40 ------- 0 2.0 0.0 69 153
- 1.084372 2 7 ack 40 ------- 0 2.0 0.0 70 154